   30   30    1    2
  0.9984401E+01  0.5025578E-09  0.5025578E-09  0.1369433E-08  0.5000000E-15
  1.000000000000000E-004
  CAR 
 fe2o3 cell                              
  276    5  168
 
  0.3742002E-15  0.3742002E-15  0.1262379E-14  0.4000000E-01
   1      -51.212445    -51.547990
   2      -51.208742    -51.547988
   3      -51.174172    -51.547922
   4      -51.174171    -51.547921
   5      -51.173109    -51.530691
   6      -51.173107    -51.530495
   7      -51.149776    -51.417874
   8      -51.149774    -51.414234
   9      -51.125677    -51.391419
  10      -51.125675    -51.391417
  11      -51.125661    -51.368196
  12      -51.125659    -51.368194
  13      -46.646821    -51.298361
  14      -46.646562    -51.298360
  15      -46.632173    -51.270438
  16      -46.632171    -51.270436
  17      -46.632057    -51.270420
  18      -46.632056    -51.270418
  19      -46.545211    -51.200696
  20      -46.542567    -51.200465
  21      -46.542566    -51.161717
  22      -46.539909    -51.161715
  23      -46.512574    -51.161665
  24      -46.512573    -51.161663
  25      -46.484383    -46.439242
  26      -46.484358    -46.434535
  27      -46.471084    -46.434534
  28      -46.471083    -46.433728
  29      -46.471062    -46.421797
  30      -46.471061    -46.421773
  31      -46.419752    -46.404195
  32      -46.419418    -46.404194
  33      -46.403035    -46.397113
  34      -46.403034    -46.397112
  35      -46.402965    -46.397095
  36      -46.402964    -46.397094
  37      -13.185984    -13.393387
  38      -12.797346    -13.044465
  39      -12.796465    -13.021160
  40      -12.033038    -12.247906
  41      -11.984338    -12.246764
  42      -11.605147    -11.829097
  43      -11.605147    -11.829096
  44      -11.554664    -11.783606
  45      -11.554663    -11.783606
  46      -11.513508    -11.779062
  47      -11.389604    -11.706910
  48      -11.389603    -11.706909
  49      -11.389546    -11.700657
  50      -11.389546    -11.700657
  51      -11.260305    -11.597250
  52      -11.260304    -11.597249
  53      -11.245193    -11.584699
  54      -11.245193    -11.584698
  55       -1.498624     -1.978095
  56       -1.200778     -1.928183
  57       -1.200778     -1.928182
  58       -1.152027     -1.858216
  59       -1.152027     -1.858216
  60       -1.123367     -1.622764
  61       -0.993429     -1.580022
  62       -0.993429     -1.580022
  63       -0.960922     -1.529811
  64       -0.960922     -1.529810
  65       -0.938159     -1.468611
  66       -0.813082     -1.402649
  67       -0.813081     -1.263658
  68       -0.716199     -1.263658
  69       -0.716198     -1.248209
  70       -0.709505     -1.248209
  71       -0.709505     -1.103771
  72       -0.703710     -1.103771
  73       -0.501337     -1.085034
  74       -0.501337     -1.085033
  75       -0.069613     -0.990737
  76        0.469055     -0.862222
  77        0.606415     -0.862221
  78        0.662806     -0.857130
  79        0.758522     -0.857130
  80        0.894802     -0.844325
  81        0.894803     -0.763358
  82        0.981225     -0.763358
  83        0.981226     -0.671874
  84        1.141036     -0.671874
  85        1.434645     -0.599990
  86        1.434646     -0.371496
  87        1.566694     -0.371496
  88        1.632967     -0.326942
  89        1.632967     -0.268028
  90        1.708410     -0.268028
  91        1.897177     -0.137288
  92        1.910001     -0.137288
  93        1.910002     -0.032470
  94        2.167272     -0.032469
  95        2.167273      0.241700
  96        2.472730      0.574918
  97        2.472731      0.653893
  98        2.601513      0.827701
  99        2.674851      1.142026
 100        2.674852      1.241383
 101        2.756373      1.276991
 102        2.820064      1.276992
 103        2.944041      1.630381
 104        3.050754      1.660823
 105        3.075133      1.660824
 106        3.075133      1.672348
 107        3.170600      1.672350
 108        3.199729      1.704770
 109        3.199730      2.067208
 110        3.247214      2.210781
 111        3.247215      2.210781
 112        3.559026      2.518863
 113        3.559028      2.630634
 114        3.580192      2.630635
 115        3.611085      2.660073
 116        4.121648      2.680971
 117        4.121649      2.680971
 118        4.202232      2.740187
 119        4.202234      2.791640
 120        4.628758      2.987780
 121        4.734054      3.012508
 122        4.734055      3.024593
 123        4.990120      3.024594
 124        4.990121      3.406425
 125        5.224469      3.504284
 126        5.224469      3.518902
 127        5.404870      3.518902
 128        5.404871      3.640628
 129        7.335712      3.640630
 130        7.335716      3.674740
 131        7.453291      3.674740
 132        7.650360      4.149230
 133        7.650438      4.149230
 134        7.689415      4.574923
 135        7.689476      4.574923
 136        7.723776      4.614311
 137        7.880060      4.903720
 138        7.880284      4.903720
 139        7.890831      4.997926
 140        7.996368      4.997927
 141        7.996429      5.233073
 142        8.045431      5.233074
 143        8.068903      5.274063
 144        8.087602      5.274064
 145        8.087987      5.501057
 146        8.105567      5.501057
 147        8.208728      5.785088
 148        8.223179      5.785088
 149        8.223590      7.854367
 150        8.315224      7.930003
 151        8.350363      7.967140
 152        8.350539      7.969802
 153        8.629118      8.062172
 154        8.631294      8.145828
 155        8.729925      8.147184
 156        8.742807      8.166660
 157        8.930940      8.200190
 158        8.934193      8.202135
 159        8.950836      8.327129
 160        8.966794      8.331458
 161        9.104090      8.829060
 162        9.132601      8.885432
 163        9.204657      8.960203
 164        9.249333      8.962867
 165        9.429787      9.016507
 166        9.459056      9.082449
 167        9.762711      9.238913
 168       10.606205     11.798927
 
  0.2000000E+00  0.3742002E-15  0.1262379E-14  0.2400000E+00
   1      -51.212253    -51.548003
   2      -51.209142    -51.547983
   3      -51.174173    -51.547963
   4      -51.174163    -51.547947
   5      -51.173687    -51.530702
   6      -51.171298    -51.530484
   7      -51.151409    -51.417733
   8      -51.149216    -51.414653
   9      -51.125686    -51.391975
  10      -51.125683    -51.389547
  11      -51.125681    -51.369805
  12      -51.125678    -51.367650
  13      -46.646854    -51.298390
  14      -46.646540    -51.298380
  15      -46.632217    -51.270567
  16      -46.632193    -51.270563
  17      -46.632145    -51.270179
  18      -46.632074    -51.270175
  19      -46.546234    -51.200633
  20      -46.543286    -51.200399
  21      -46.540673    -51.162018
  22      -46.538894    -51.162002
  23      -46.514471    -51.161591
  24      -46.511834    -51.161563
  25      -46.484474    -46.439960
  26      -46.484465    -46.435358
  27      -46.471447    -46.434467
  28      -46.471442    -46.431198
  29      -46.470315    -46.421780
  30      -46.470305    -46.421772
  31      -46.419650    -46.406107
  32      -46.419310    -46.403422
  33      -46.403826    -46.397145
  34      -46.403803    -46.397139
  35      -46.402678    -46.397117
  36      -46.402642    -46.397116
  37      -13.047998    -13.255773
  38      -12.687982    -12.935528
  39      -12.678493    -12.911201
  40      -12.011089    -12.243587
  41      -11.953485    -12.213972
  42      -11.675143    -11.902755
  43      -11.655238    -11.872359
  44      -11.619939    -11.838673
  45      -11.589750    -11.811470
  46      -11.540537    -11.797574
  47      -11.456741    -11.761306
  48      -11.414528    -11.746305
  49      -11.404764    -11.722780
  50      -11.397747    -11.708142
  51      -11.346397    -11.676670
  52      -11.314341    -11.646323
  53      -11.266389    -11.598439
  54      -11.235229    -11.572793
  55       -1.488783     -2.002615
  56       -1.394431     -1.989223
  57       -1.304294     -1.927375
  58       -1.169789     -1.824490
  59       -1.134508     -1.800377
  60       -1.106030     -1.672290
  61       -1.048698     -1.661473
  62       -1.020460     -1.597319
  63       -0.983696     -1.566774
  64       -0.955174     -1.514925
  65       -0.917981     -1.455013
  66       -0.876397     -1.431031
  67       -0.816736     -1.423819
  68       -0.803529     -1.344287
  69       -0.773995     -1.297186
  70       -0.735668     -1.264141
  71       -0.679754     -1.183876
  72       -0.603788     -1.172130
  73       -0.461466     -1.081502
  74       -0.376042     -1.045593
  75       -0.021593     -1.020674
  76        0.324529     -0.993301
  77        0.574394     -0.946504
  78        0.656406     -0.915739
  79        0.691597     -0.843791
  80        0.836090     -0.725007
  81        0.893556     -0.703073
  82        0.991382     -0.661589
  83        1.220447     -0.607134
  84        1.280466     -0.595489
  85        1.380304     -0.566714
  86        1.538810     -0.453278
  87        1.568346     -0.408791
  88        1.741884     -0.321876
  89        1.758823     -0.253079
  90        1.775762     -0.238016
  91        1.909580     -0.175974
  92        1.934572     -0.159335
  93        2.021545     -0.059358
  94        2.113979     -0.017229
  95        2.306608      0.585638
  96        2.446880      0.652440
  97        2.493760      0.755705
  98        2.575270      0.839071
  99        2.609785      1.027493
 100        2.692756      1.143819
 101        2.776999      1.151427
 102        2.845106      1.368241
 103        2.960987      1.573589
 104        2.981328      1.603621
 105        3.040132      1.722584
 106        3.061345      1.859301
 107        3.151152      1.910644
 108        3.260885      1.974175
 109        3.285156      2.066379
 110        3.423164      2.152763
 111        3.470389      2.192169
 112        3.577743      2.414650
 113        3.701220      2.487909
 114        3.772814      2.599916
 115        3.837898      2.668631
 116        4.026249      2.684287
 117        4.154444      2.722143
 118        4.178173      2.906046
 119        4.235328      2.932245
 120        4.420594      3.034781
 121        4.482949      3.101687
 122        4.671457      3.128134
 123        4.871075      3.205011
 124        4.925285      3.296590
 125        5.023797      3.449037
 126        5.177007      3.545806
 127        5.263770      3.665485
 128        5.293016      3.689127
 129        7.328694      3.814442
 130        7.393547      3.901170
 131        7.450725      4.026382
 132        7.501908      4.167720
 133        7.605734      4.279643
 134        7.671693      4.347480
 135        7.708981      4.439089
 136        7.799298      4.529026
 137        7.836408      4.660182
 138        7.856986      4.733009
 139        7.904544      4.929962
 140        7.942639      4.955402
 141        7.984918      5.047315
 142        8.023501      5.091229
 143        8.038046      5.165029
 144        8.082009      5.235854
 145        8.123459      5.449502
 146        8.168788      5.502193
 147        8.202322      5.546966
 148        8.242470      5.725220
 149        8.257474      7.839485
 150        8.261291      7.852706
 151        8.335246      7.973731
 152        8.379091      8.011097
 153        8.590520      8.063490
 154        8.631859      8.108358
 155        8.717587      8.131745
 156        8.790670      8.154932
 157        8.870114      8.167507
 158        8.909951      8.269079
 159        8.958109      8.276157
 160        9.013332      8.301202
 161        9.025279      8.805268
 162        9.108766      8.824133
 163        9.171690      8.865689
 164        9.186193      8.887291
 165        9.421716      8.948599
 166        9.518284      9.006714
 167        9.963938      9.060467
 168       12.451811     12.462972
 
  0.4000000E+00  0.3742002E-15  0.1262379E-14  0.2400000E+00
   1      -51.211707    -51.548027
   2      -51.210008    -51.547999
   3      -51.174571    -51.547979
   4      -51.174168    -51.547962
   5      -51.174152    -51.530723
   6      -51.167515    -51.530463
   7      -51.154898    -51.417245
   8      -51.148341    -51.415555
   9      -51.125699    -51.392825
  10      -51.125697    -51.385702
  11      -51.125690    -51.373236
  12      -51.125684    -51.366792
  13      -46.646916    -51.298428
  14      -46.646500    -51.298413
  15      -46.632288    -51.270778
  16      -46.632264    -51.270776
  17      -46.632197    -51.269769
  18      -46.632075    -51.269762
  19      -46.545883    -51.200524
  20      -46.544505    -51.200281
  21      -46.542206    -51.162524
  22      -46.533601    -51.162510
  23      -46.518456    -51.161393
  24      -46.510676    -51.161366
  25      -46.484594    -46.439664
  26      -46.484587    -46.436966
  27      -46.472033    -46.435734
  28      -46.472028    -46.425822
  29      -46.469103    -46.421766
  30      -46.469093    -46.421757
  31      -46.419417    -46.410176
  32      -46.419069    -46.402217
  33      -46.405198    -46.397193
  34      -46.405172    -46.397186
  35      -46.402112    -46.397123
  36      -46.402076    -46.397118
  37      -12.687687    -12.894403
  38      -12.452270    -12.705765
  39      -12.358823    -12.607965
  40      -12.204679    -12.445960
  41      -11.966168    -12.217229
  42      -11.844629    -12.118027
  43      -11.779366    -12.001665
  44      -11.666193    -11.883579
  45      -11.643775    -11.872693
  46      -11.631700    -11.858627
  47      -11.562524    -11.828034
  48      -11.485258    -11.802607
  49      -11.438457    -11.770515
  50      -11.427547    -11.747228
  51      -11.378486    -11.700793
  52      -11.363208    -11.690643
  53      -11.312461    -11.609734
  54      -11.249287    -11.588148
  55       -1.653667     -2.105009
  56       -1.457249     -2.005449
  57       -1.285545     -1.903397
  58       -1.278593     -1.853142
  59       -1.233653     -1.829654
  60       -1.186816     -1.764201
  61       -1.160503     -1.693247
  62       -1.091439     -1.650845
  63       -1.053706     -1.632229
  64       -0.981951     -1.575309
  65       -0.936828     -1.529855
  66       -0.890897     -1.477034
  67       -0.826801     -1.431206
  68       -0.789254     -1.413858
  69       -0.640785     -1.373804
  70       -0.632337     -1.292817
  71       -0.600674     -1.284471
  72       -0.551935     -1.221688
  73       -0.406546     -1.141216
  74       -0.208351     -1.096929
  75        0.065668     -0.995546
  76        0.274673     -0.950778
  77        0.434734     -0.849532
  78        0.521860     -0.818016
  79        0.739990     -0.768949
  80        0.839102     -0.749542
  81        0.907797     -0.696169
  82        0.991847     -0.585700
  83        1.176619     -0.556738
  84        1.434577     -0.520706
  85        1.503117     -0.476693
  86        1.545143     -0.442371
  87        1.681211     -0.396933
  88        1.697074     -0.331511
  89        1.753574     -0.313513
  90        1.890642     -0.293301
  91        2.044388     -0.220766
  92        2.060852     -0.141388
  93        2.170244     -0.090831
  94        2.215170      0.005138
  95        2.399675      0.546690
  96        2.433696      0.740238
  97        2.526057      0.851622
  98        2.573514      0.909808
  99        2.665461      1.034068
 100        2.740174      1.086448
 101        2.781608      1.227027
 102        2.821041      1.525497
 103        2.904472      1.630550
 104        2.935516      1.699475
 105        3.049454      1.802442
 106        3.107258      1.881907
 107        3.199619      2.022367
 108        3.266003      2.046678
 109        3.377852      2.096409
 110        3.515612      2.200058
 111        3.585533      2.336613
 112        3.633298      2.484651
 113        3.771277      2.596937
 114        3.784264      2.601160
 115        3.847916      2.650146
 116        4.025300      2.756837
 117        4.086864      2.837833
 118        4.201147      2.889200
 119        4.274404      2.949591
 120        4.346719      3.059998
 121        4.483206      3.176908
 122        4.663867      3.211670
 123        4.684795      3.366522
 124        4.854527      3.434923
 125        4.971987      3.490457
 126        5.023779      3.559790
 127        5.191539      3.648867
 128        5.281897      3.705154
 129        7.280646      3.814338
 130        7.354365      3.955812
 131        7.378932      4.002956
 132        7.520330      4.115228
 133        7.552394      4.183380
 134        7.649734      4.295961
 135        7.650147      4.371215
 136        7.765055      4.500399
 137        7.773779      4.559014
 138        7.797079      4.664441
 139        7.889977      4.759433
 140        7.918347      4.835314
 141        7.961415      4.925728
 142        8.018984      5.088129
 143        8.053192      5.151292
 144        8.072108      5.293564
 145        8.121272      5.335089
 146        8.160860      5.460215
 147        8.172442      5.549163
 148        8.223994      5.612344
 149        8.294028      7.682656
 150        8.310269      7.775894
 151        8.331392      7.961431
 152        8.352232      8.005859
 153        8.520979      8.040708
 154        8.673553      8.059692
 155        8.692155      8.071548
 156        8.761257      8.107819
 157        8.812872      8.136066
 158        8.865695      8.177034
 159        8.920688      8.290945
 160        8.949629      8.365228
 161        9.021861      8.709497
 162        9.065367      8.777949
 163        9.125092      8.832655
 164        9.246588      8.905996
 165        9.296569      8.942664
 166        9.427612      8.999979
 167        9.478769      9.023673
 168       14.143667     13.078788
 
  0.2000000E+00  0.2000000E+00  0.1262379E-14  0.2400000E+00
   1      -51.211855    -51.548008
   2      -51.209805    -51.547992
   3      -51.174648    -51.547983
   4      -51.174172    -51.547959
   5      -51.174157    -51.530726
   6      -51.167918    -51.530466
   7      -51.154540    -51.417385
   8      -51.148263    -51.415342
   9      -51.125700    -51.392911
  10      -51.125696    -51.386117
  11      -51.125678    -51.372882
  12      -51.125677    -51.366716
  13      -46.646913    -51.298425
  14      -46.646506    -51.298410
  15      -46.632267    -51.270793
  16      -46.632221    -51.270790
  17      -46.632188    -51.269783
  18      -46.632094    -51.269782
  19      -46.546024    -51.200552
  20      -46.544496    -51.200304
  21      -46.541968    -51.162476
  22      -46.534153    -51.162472
  23      -46.518119    -51.161366
  24      -46.510577    -51.161353
  25      -46.484574    -46.439779
  26      -46.484568    -46.436660
  27      -46.472079    -46.435773
  28      -46.472079    -46.426400
  29      -46.469153    -46.421771
  30      -46.469150    -46.421764
  31      -46.419471    -46.409836
  32      -46.419115    -46.402113
  33      -46.405092    -46.397177
  34      -46.405080    -46.397176
  35      -46.402051    -46.397119
  36      -46.402036    -46.397115
  37      -12.797347    -13.005402
  38      -12.495005    -12.744232
  39      -12.473319    -12.720819
  40      -12.035169    -12.263061
  41      -11.982260    -12.249630
  42      -11.809345    -12.074012
  43      -11.711663    -11.926811
  44      -11.688021    -11.906472
  45      -11.648658    -11.867185
  46      -11.618923    -11.860882
  47      -11.529013    -11.833394
  48      -11.498198    -11.785243
  49      -11.447225    -11.762643
  50      -11.413512    -11.740191
  51      -11.387029    -11.720074
  52      -11.356554    -11.665572
  53      -11.273146    -11.613414
  54      -11.259516    -11.581310
  55       -1.581371     -2.054701
  56       -1.483286     -1.987175
  57       -1.338122     -1.949198
  58       -1.235058     -1.859700
  59       -1.195094     -1.811093
  60       -1.136188     -1.768490
  61       -1.101844     -1.675130
  62       -1.054999     -1.636037
  63       -1.032011     -1.616258
  64       -0.993753     -1.580380
  65       -0.908229     -1.548251
  66       -0.886138     -1.438176
  67       -0.832561     -1.401378
  68       -0.784733     -1.344499
  69       -0.763616     -1.316813
  70       -0.701539     -1.261448
  71       -0.649751     -1.244065
  72       -0.563388     -1.227470
  73       -0.430904     -1.160027
  74       -0.190374     -1.081060
  75        0.065854     -1.033711
  76        0.261738     -0.972774
  77        0.552734     -0.959633
  78        0.596737     -0.852378
  79        0.786061     -0.788620
  80        0.839512     -0.714584
  81        0.934209     -0.696533
  82        0.989664     -0.664244
  83        1.206507     -0.591777
  84        1.248088     -0.546358
  85        1.371408     -0.482792
  86        1.501134     -0.432170
  87        1.625421     -0.391304
  88        1.720571     -0.376364
  89        1.811768     -0.261563
  90        1.887145     -0.237920
  91        1.912846     -0.217629
  92        1.991366     -0.134373
  93        2.184257     -0.095496
  94        2.249395     -0.032247
  95        2.323214      0.695616
  96        2.412614      0.748628
  97        2.548586      0.815107
  98        2.569196      0.935329
  99        2.655086      1.091472
 100        2.730937      1.132665
 101        2.794057      1.248898
 102        2.925342      1.395877
 103        2.953883      1.538593
 104        2.980077      1.590642
 105        3.081414      1.784868
 106        3.128422      1.848832
 107        3.170713      1.937490
 108        3.202552      2.090135
 109        3.379386      2.143572
 110        3.402644      2.232433
 111        3.553962      2.292274
 112        3.637298      2.395402
 113        3.747967      2.500366
 114        3.853011      2.605392
 115        3.904608      2.634393
 116        4.060675      2.736159
 117        4.124858      2.886835
 118        4.201261      2.950567
 119        4.274087      2.996621
 120        4.344615      3.068595
 121        4.442998      3.079826
 122        4.596001      3.154426
 123        4.731231      3.207816
 124        4.903965      3.433833
 125        4.932061      3.539586
 126        5.071243      3.613064
 127        5.162372      3.650595
 128        5.307369      3.752569
 129        7.232987      3.892995
 130        7.390459      3.910107
 131        7.471229      4.113996
 132        7.515571      4.158381
 133        7.562593      4.168979
 134        7.631767      4.303836
 135        7.658037      4.396638
 136        7.743507      4.470475
 137        7.766829      4.535911
 138        7.839695      4.691229
 139        7.894545      4.737924
 140        7.925171      4.871183
 141        7.949136      4.969139
 142        7.980957      5.072886
 143        8.054667      5.090792
 144        8.073290      5.252035
 145        8.089517      5.322376
 146        8.159545      5.491782
 147        8.211581      5.568315
 148        8.234803      5.692247
 149        8.262966      7.740826
 150        8.316780      7.806253
 151        8.346219      7.914906
 152        8.357576      8.021409
 153        8.474592      8.031415
 154        8.630181      8.059526
 155        8.725474      8.084565
 156        8.782135      8.105420
 157        8.841796      8.168121
 158        8.919981      8.195405
 159        8.953282      8.271137
 160        8.986192      8.359931
 161        9.016010      8.712091
 162        9.058557      8.801976
 163        9.088058      8.848884
 164        9.249672      8.872482
 165        9.366564      8.908580
 166        9.422532      9.005852
 167        9.590920      9.010474
 168       12.429348     12.051259
 
  0.4000000E+00  0.2000000E+00  0.1262379E-14  0.2400000E+00
   1      -51.211314    -51.548021
   2      -51.210515    -51.547999
   3      -51.175285    -51.547997
   4      -51.174170    -51.547974
   5      -51.174166    -51.530740
   6      -51.164277    -51.530467
   7      -51.158035    -51.416863
   8      -51.147651    -51.416070
   9      -51.125717    -51.393535
  10      -51.125711    -51.382476
  11      -51.125682    -51.376319
  12      -51.125678    -51.366116
  13      -46.646955    -51.298443
  14      -46.646499    -51.298439
  15      -46.632313    -51.270958
  16      -46.632237    -51.270955
  17      -46.632198    -51.269527
  18      -46.632121    -51.269523
  19      -46.545539    -51.200499
  20      -46.544934    -51.200255
  21      -46.543287    -51.162786
  22      -46.529642    -51.162779
  23      -46.522175    -51.161221
  24      -46.509772    -51.161215
  25      -46.484624    -46.438889
  26      -46.484623    -46.437737
  27      -46.472524    -46.436958
  28      -46.472521    -46.421818
  29      -46.468396    -46.421770
  30      -46.468391    -46.421696
  31      -46.419316    -46.414025
  32      -46.418967    -46.401277
  33      -46.405982    -46.397197
  34      -46.405968    -46.397196
  35      -46.401638    -46.397135
  36      -46.401633    -46.397128
  37      -12.449941    -12.639416
  38      -12.367792    -12.601868
  39      -12.252569    -12.529350
  40      -12.173175    -12.412441
  41      -12.124341    -12.401393
  42      -11.962505    -12.238178
  43      -11.795873    -12.015918
  44      -11.708902    -11.933962
  45      -11.679678    -11.901535
  46      -11.652664    -11.855916
  47      -11.538473    -11.853446
  48      -11.513971    -11.814394
  49      -11.495008    -11.806238
  50      -11.477638    -11.773899
  51      -11.418955    -11.734469
  52      -11.313608    -11.660574
  53      -11.311678    -11.628783
  54      -11.269577    -11.586364
  55       -1.665693     -2.080718
  56       -1.497547     -2.018181
  57       -1.384549     -1.981085
  58       -1.291187     -1.878191
  59       -1.239880     -1.869767
  60       -1.177515     -1.773621
  61       -1.116201     -1.710278
  62       -1.105221     -1.674768
  63       -1.011555     -1.646597
  64       -0.964804     -1.539221
  65       -0.923845     -1.503626
  66       -0.808327     -1.456544
  67       -0.806244     -1.436043
  68       -0.732025     -1.360447
  69       -0.704893     -1.343482
  70       -0.680057     -1.314890
  71       -0.649316     -1.287194
  72       -0.582046     -1.206350
  73       -0.524555     -1.159564
  74       -0.068366     -1.056115
  75        0.160907     -1.001055
  76        0.246069     -0.953452
  77        0.502188     -0.881276
  78        0.670132     -0.806981
  79        0.781183     -0.791749
  80        0.919526     -0.748069
  81        0.958255     -0.713695
  82        0.988211     -0.636673
  83        1.178958     -0.582835
  84        1.323028     -0.538681
  85        1.465686     -0.531721
  86        1.477567     -0.458336
  87        1.560649     -0.393915
  88        1.687528     -0.351578
  89        1.754013     -0.325569
  90        1.875683     -0.229844
  91        1.902531     -0.212451
  92        2.012850     -0.168736
  93        2.098693     -0.056297
  94        2.198740     -0.025348
  95        2.276245      0.651851
  96        2.338121      0.835365
  97        2.492611      0.919733
  98        2.657479      1.002062
  99        2.677851      1.074604
 100        2.755979      1.207779
 101        2.808484      1.334201
 102        2.878794      1.473713
 103        2.918767      1.607737
 104        2.980067      1.659463
 105        3.113203      1.815377
 106        3.264315      1.908403
 107        3.295819      1.979653
 108        3.363057      1.986035
 109        3.428539      2.105621
 110        3.458952      2.199923
 111        3.525827      2.278756
 112        3.566676      2.368949
 113        3.756804      2.384013
 114        3.807826      2.511510
 115        3.931805      2.652741
 116        4.002614      2.709194
 117        4.177478      2.927396
 118        4.217277      2.956464
 119        4.266642      3.088003
 120        4.295299      3.202268
 121        4.544491      3.239897
 122        4.718657      3.263135
 123        4.753121      3.286883
 124        4.862807      3.353257
 125        4.969077      3.441146
 126        5.024093      3.579682
 127        5.096655      3.641686
 128        5.349435      3.733434
 129        7.209046      3.794161
 130        7.289641      3.944174
 131        7.459118      3.982263
 132        7.486994      4.091256
 133        7.571338      4.151244
 134        7.604147      4.182239
 135        7.631697      4.504754
 136        7.682748      4.571995
 137        7.779598      4.621127
 138        7.796511      4.657678
 139        7.820765      4.692484
 140        7.883563      4.839017
 141        7.960472      4.921801
 142        7.985072      5.069318
 143        8.033120      5.153659
 144        8.097999      5.244706
 145        8.131847      5.389562
 146        8.156976      5.551227
 147        8.181465      5.624402
 148        8.240250      5.663335
 149        8.275421      7.669748
 150        8.284713      7.729191
 151        8.325084      7.866118
 152        8.343917      7.976984
 153        8.465276      8.006326
 154        8.541923      8.045115
 155        8.720387      8.070300
 156        8.803887      8.110485
 157        8.817449      8.128950
 158        8.928993      8.159965
 159        8.974144      8.298875
 160        8.985322      8.341223
 161        9.042337      8.665890
 162        9.127907      8.816160
 163        9.134194      8.866598
 164        9.189976      8.932173
 165        9.266053      8.956168
 166        9.373097      8.975361
 167        9.486017      9.012163
 168        9.549550      9.053974
