 vasp.5.2.12 26May11 complex 
 executed on             LinuxIFC date 2019.08.18  18:05:14
 running on   24 nodes
 distr:  one band on    1 nodes,   24 groups


--------------------------------------------------------------------------------------------------------


 INCAR:
 POTCAR:    PAW_PBE Fe_pv 02Aug2007               
 POTCAR:    PAW_PBE O 08Apr2002                   
 POTCAR:    PAW_PBE Fe_pv 02Aug2007               
  local pseudopotential read in
  partial core-charges read in
  partial kinetic energy density read in
  atomic valenz-charges read in
  non local Contribution for L=           1  read in
    real space projection operators read in
  non local Contribution for L=           1  read in
    real space projection operators read in
  non local Contribution for L=           2  read in
    real space projection operators read in
  non local Contribution for L=           2  read in
    real space projection operators read in
  non local Contribution for L=           0  read in
    real space projection operators read in
  non local Contribution for L=           0  read in
    real space projection operators read in
    PAW grid and wavefunctions read in
 
   number of l-projection  operators is LMAX  =           6
   number of lm-projection operators is LMMAX =          18
 
 POTCAR:    PAW_PBE O 08Apr2002                   
  local pseudopotential read in
  partial core-charges read in
  partial kinetic energy density read in
  kinetic energy density of atom read in
  atomic valenz-charges read in
  non local Contribution for L=           0  read in
    real space projection operators read in
  non local Contribution for L=           0  read in
    real space projection operators read in
  non local Contribution for L=           1  read in
    real space projection operators read in
  non local Contribution for L=           1  read in
    real space projection operators read in
    PAW grid and wavefunctions read in
 
   number of l-projection  operators is LMAX  =           4
   number of lm-projection operators is LMMAX =           8
 
 Optimization of the real space projectors (new method)

 maximal supplied QI-value         = 17.01
 optimisation between [QCUT,QGAM] = [ 11.40, 22.79] = [ 36.36,145.44] Ry 
 Optimized for a Real-space Cutoff    1.47 Angstroem

   l    n(q)    QCUT    max X(q) W(low)/X(q) W(high)/X(q)  e(spline) 
   1     10    11.395     4.267    0.90E-04    0.11E-03    0.18E-06
   1     10    11.395     5.750    0.14E-03    0.15E-03    0.25E-06
   2      9    11.395    53.656    0.13E-03    0.36E-04    0.15E-06
   2      9    11.395    49.521    0.14E-03    0.36E-04    0.15E-06
   0     10    11.395    31.246    0.58E-04    0.17E-05    0.98E-07
   0     10    11.395    12.201    0.41E-04    0.11E-05    0.82E-07
 Optimization of the real space projectors (new method)

 maximal supplied QI-value         = 24.76
 optimisation between [QCUT,QGAM] = [ 11.39, 22.77] = [ 36.31,145.25] Ry 
 Optimized for a Real-space Cutoff    1.10 Angstroem

   l    n(q)    QCUT    max X(q) W(low)/X(q) W(high)/X(q)  e(spline) 
   0      7    11.387    20.381    0.22E-03    0.48E-03    0.18E-06
   0      7    11.387    15.268    0.22E-03    0.52E-03    0.19E-06
   1      7    11.387     5.964    0.22E-03    0.73E-03    0.24E-06
   1      7    11.387     5.382    0.19E-03    0.60E-03    0.21E-06
  PAW_PBE Fe_pv 02Aug2007               :
 energy of atom  1       EATOM=-2457.4239
 kinetic energy error for atom=    0.0069 (will be added to EATOM!!)
  PAW_PBE O 08Apr2002                   :
 energy of atom  2       EATOM= -432.3788
 kinetic energy error for atom=    0.0224 (will be added to EATOM!!)
 
 
 POSCAR: # Please generate POTCAR in this order: 
  positions in direct lattice
  velocities in cartesian coordinates
  No initial velocities read in
 exchange correlation table for  LEXCH =        8
   RHO(1)=    0.500       N(1)  =     2000
   RHO(2)=  100.500       N(2)  =     4000

 VTST: version 3.1, (03/28/14)

 CHAIN: initializing optimizer
 
 OPT: Using VASP Conjugate-Gradient optimizer
 CHAIN: Read ICHAIN            0
 
 POSCAR: # Please generate POTCAR in this order: 
  positions in direct lattice
  velocities in cartesian coordinates
  No initial velocities read in
 


--------------------------------------------------------------------------------------------------------


 ion  position               nearest neighbor table
   1  0.667  0.333  0.978-  15 1.96  18 1.96  21 1.96  23 2.08  29 2.08  26 2.08
   2  0.000  0.000  0.855-  18 1.96  21 1.96  15 1.96  22 2.08  25 2.08  28 2.08
   3  0.333  0.667  0.812-  28 1.96  22 1.96  25 1.96  15 2.08  21 2.08  18 2.08
   4  0.667  0.333  0.688-  28 1.96  25 1.96  22 1.96  17 2.08  20 2.08  14 2.08
   5  0.000  0.000  0.645-  14 1.96  20 1.96  17 1.96  22 2.08  25 2.08  28 2.08
   6  0.333  0.667  0.522-  17 1.96  14 1.96  20 1.96  27 2.08  30 2.08  24 2.08
   7  0.667  0.333  0.478-  27 1.96  24 1.96  30 1.96  17 2.08  20 2.08  14 2.08
   8  0.000  0.000  0.355-  24 1.96  30 1.96  27 1.96  16 2.08  13 2.08  19 2.08
   9  0.333  0.667  0.312-  19 1.96  16 1.96  13 1.96  27 2.08  30 2.08  24 2.08
  10  0.667  0.333  0.188-  19 1.96  13 1.96  16 1.96  23 2.08  29 2.08  26 2.08
  11  0.000  0.000  0.145-  26 1.96  29 1.96  23 1.96  16 2.08  13 2.08  19 2.08
  12  0.333  0.667  0.022-  23 1.96  26 1.96  29 1.96  15 2.08  21 2.08  18 2.08
  13  0.300  0.000  0.250-  10 1.96   9 1.96   8 2.08  11 2.08
  14  0.967  0.333  0.583-   6 1.96   5 1.96   4 2.08   7 2.08
  15  0.633  0.667  0.917-   1 1.96   2 1.96   3 2.08  12 2.08
  16  0.000  0.300  0.250-   9 1.96  10 1.96   8 2.08  11 2.08
  17  0.667  0.633  0.583-   6 1.96   5 1.96   4 2.08   7 2.08
  18  0.333  0.967  0.917-   1 1.96   2 1.96   3 2.08  12 2.08
  19  0.700  0.700  0.250-   9 1.96  10 1.96  11 2.08   8 2.08
  20  0.367  0.033  0.583-   5 1.96   6 1.96   4 2.08   7 2.08
  21  0.033  0.367  0.917-   1 1.96   2 1.96   3 2.08  12 2.08
  22  0.700  0.000  0.750-   3 1.96   4 1.96   2 2.08   5 2.08
  23  0.367  0.333  0.083-  12 1.96  11 1.96  10 2.08   1 2.08
  24  0.033  0.667  0.417-   7 1.96   8 1.96   9 2.08   6 2.08
  25  0.000  0.700  0.750-   4 1.96   3 1.96   2 2.08   5 2.08
  26  0.667  0.033  0.083-  12 1.96  11 1.96  10 2.08   1 2.08
  27  0.333  0.367  0.417-   7 1.96   8 1.96   9 2.08   6 2.08
  28  0.300  0.300  0.750-   4 1.96   3 1.96   2 2.08   5 2.08
  29  0.967  0.633  0.083-  11 1.96  12 1.96  10 2.08   1 2.08
  30  0.633  0.967  0.417-   7 1.96   8 1.96   9 2.08   6 2.08
 
  LATTYP: Found a hexagonal cell.
 ALAT       =     5.0255778587
 C/A-ratio  =     2.7249255214
  
  Lattice vectors:
  
 A1 = (   4.3522780943,  -2.5127889293,   0.0000000000)
 A2 = (   0.0000000000,   5.0255778587,   0.0000000000)
 A3 = (  -0.0000000000,  -0.0000000000,  13.6943253667)
 Subroutine PRICEL returns following result:
 
  LATTYP: Found a trigonal (rhomboedric) cell.
 ALAT       =     5.4088800000
 COS(alpha) =     0.5683543954
  
  Lattice vectors:
  
 A1 = (  -2.9015187295,   0.0000000000,  -4.5647751222)
 A2 = (   1.4507593648,   2.5127889293,  -4.5647751222)
 A3 = (   1.4507593648,  -2.5127889293,  -4.5647751222)
 
   3 primitive cells build up your supercell.
 

Analysis of symmetry for initial positions (statically):

 Routine SETGRP: Setting up the symmetry group for a 
 hexagonal supercell.


 Subroutine GETGRP returns: Found 12 space group operations
 (whereof  6 operations were pure point group operations)
 out of a pool of 24 trial point group operations.


The static configuration has the point symmetry S_6 .
 The point group associated with its full space group is D_3d.

Analysis of symmetry for dynamics (positions and initial velocities):

 Subroutine DYNSYM returns: Found 12 space group operations
 (whereof  6 operations were pure point group operations)
 out of a pool of 12 trial space group operations
 (whereof  6 operations were pure point group operations)
 and found also     3 'primitive' translations


The dynamic configuration has the point symmetry S_6 .
 The point group associated with its full space group is D_3d.

Analysis of magnetic symmetry:

 Subroutine MAGSYM returns: Found  6 space group operations
 (whereof  6 operations were pure point group operations)
 out of a pool of 12 trial space group operations
 (whereof  6 operations were pure point group operations)
 and found also     1 'primitive' translations


The magnetic configuration has the point symmetry S_6 .
 
 
 KPOINTS: Automatic Mesh                          

Automatic generation of k-mesh.
 generate k-points for:    5    5    1
 
 Subroutine IBZKPT returns following result:
 ===========================================
 
 Found      5 irreducible k-points:
 
 Following reciprocal coordinates:
            Coordinates               Weight
  0.000000  0.000000  0.000000      1.000000
  0.200000  0.000000  0.000000      6.000000
  0.400000  0.000000  0.000000      6.000000
  0.200000  0.200000  0.000000      6.000000
  0.400000  0.200000  0.000000      6.000000
 
 Following cartesian coordinates:
            Coordinates               Weight
  0.000000  0.000000  0.000000      1.000000
  0.045953  0.000000  0.000000      6.000000
  0.091906  0.000000  0.000000      6.000000
  0.068929  0.039796  0.000000      6.000000
  0.114882  0.039796  0.000000      6.000000
 


--------------------------------------------------------------------------------------------------------




 Dimension of arrays:
   k-points           NKPTS =      5   k-points in BZ     NKDIM =      5   number of bands    NBANDS=    168
   number of dos      NEDOS =   3000   number of ions     NIONS =     30
   non local maximal  LDIM  =      6   non local SUM 2l+1 LMDIM =     18
   total plane-waves  NPLWV = 160000
   max r-space proj   IRMAX =   7221   max aug-charges    IRDMAX=  16018
   dimension x,y,z NGX =    40 NGY =   40 NGZ =  100
   dimension x,y,z NGXF=    80 NGYF=   80 NGZF=  200
   support grid    NGXF=    80 NGYF=   80 NGZF=  200
   ions per type =              12  18
 NGX,Y,Z   is equivalent  to a cutoff of  13.23, 13.23, 12.14 a.u.
 NGXF,Y,Z  is equivalent  to a cutoff of  26.46, 26.46, 24.28 a.u.


 I would recommend the setting:
   dimension x,y,z NGX =    37 NGY =   37 NGZ =  100
 SYSTEM =  fe2o3 cell                              
 POSCAR =  # Please generate POTCAR in this order: 

 Startparameter for this run:
   NWRITE =      0    write-flag & timer
   PREC   = accura    normal or accurate (medium, high low for compatibility)
   ISTART =      0    job   : 0-new  1-cont  2-samecut
   ICHARG =      2    charge: 1-file 2-atom 10-const
   ISPIN  =      2    spin polarized calculation?
   LNONCOLLINEAR =      F non collinear calculations
   LSORBIT =      F    spin-orbit coupling
   INIWAV =      1    electr: 0-lowe 1-rand  2-diag
   LASPH  =      T    aspherical Exc in radial PAW
   METAGGA=      F    non-selfconsistent MetaGGA calc.

 Electronic Relaxation 1
   ENCUT  =  500.0 eV  36.75 Ry    6.06 a.u.   9.16  9.16 24.97*2*pi/ulx,y,z
   ENINI  =  500.0     initial cutoff
   ENAUG  =  605.4 eV  augmentation charge cutoff
   NELM   =     60;   NELMIN=  5; NELMDL=-12     # of ELM steps 
   EDIFF  = 0.1E-04   stopping-criterion for ELM
   LREAL  =      T    real-space projection
   LCOMPAT=      F    compatible to vasp.4.4
   GGA_COMPAT  = T    GGA compatible to vasp.4.4-vasp.4.6
   LMAXPAW     = -100 max onsite density
   LMAXMIX     =    4 max onsite mixed and CHGCAR
   VOSKOWN=      0    Vosko Wilk Nusair interpolation
   ROPT   =   -0.00025  -0.00025
 Ionic relaxation
   EDIFFG = -.1E-01   stopping-criterion for IOM
   NSW    =      0    number of steps for IOM
   NBLOCK =      1;   KBLOCK =      1    inner block; outer block 
   IBRION =     -1    ionic relax: 0-MD 1-quasi-New 2-CG
   NFREE  =      1    steps in history (QN), initial steepest desc. (CG)
   ISIF   =      3    stress and relaxation
   IWAVPR =     10    prediction:  0-non 1-charg 2-wave 3-comb
   ISYM   =      2    0-nonsym 1-usesym 2-fastsym
   LCORR  =      T    Harris-Foulkes like correction to forces

   POTIM  = 0.5000    time-step for ionic-motion
   TEIN   =    0.0    initial temperature
   TEBEG  =    0.0;   TEEND  =   0.0 temperature during run
   SMASS  =  -3.00    Nose mass-parameter (am)
   estimated Nose-frequenzy (Omega)   =  0.10E-29 period in steps =****** mass=  -0.577E-27a.u.
   SCALEE = 1.0000    scale energy and forces
   NPACO  =    256;   APACO  = 16.0  distance and # of slots for P.C.
   PSTRESS=    0.0 pullay stress

  Mass of Ions in am
   POMASS =  55.85 16.00
  Ionic Valenz
   ZVAL   =  14.00  6.00
  Atomic Wigner-Seitz radii
   RWIGS  =  -1.00 -1.00
  virtual crystal weights 
   VCA    =   1.00  1.00
   NELECT =     276.0000    total number of electrons
   NUPDOWN=      -1.0000    fix difference up-down

 DOS related values:
   EMIN   = -30.00;   EMAX   = 30.00  energy-range for DOS
   EFERMI =   0.00
   ISMEAR =     1;   SIGMA  =   0.20  broadening in eV -4-tet -1-fermi 0-gaus

 Electronic relaxation 2 (details)
   IALGO  =     48    algorithm
   LDIAG  =      T    sub-space diagonalisation (order eigenvalues)
   LSUBROT=      T    optimize rotation matrix (better conditioning)
   TURBO    =      0    0=normal 1=particle mesh
   IRESTART =      0    0=no restart 2=restart with 2 vectors
   NREBOOT  =      0    no. of reboots
   NMIN     =      0    reboot dimension
   EREF     =   0.00    reference energy to select bands
   IMIX   =      4    mixing-type and parameters
     AMIX     =   0.40;   BMIX     =  1.00
     AMIX_MAG =   1.60;   BMIX_MAG =  1.00
     AMIN     =   0.10
     WC   =   100.;   INIMIX=   1;  MIXPRE=   1

 Intra band minimization:
   WEIMIN = 0.0000     energy-eigenvalue tresh-hold
   EBREAK =  0.16E-07  absolut break condition
   DEPER  =   0.30     relativ break condition  

   TIME   =   0.40     timestep for ELM

  volume/ion in A,a.u.               =       9.98        67.38
  Fermi-wavevector in a.u.,A,eV,Ry     =   1.593053  3.010433 34.529088  2.537816
  Thomas-Fermi vector in A             =   2.691342
 
 Write flags
   LWAVE  =      T    write WAVECAR
   LCHARG =      T    write CHGCAR
   LVTOT  =      F    write LOCPOT, total local potential
   LVHAR  =      F    write LOCPOT, Hartree potential only
   LELF   =      F    write electronic localiz. function (ELF)
   LORBIT =     11    0 simple, 1 ext, 2 COOP (PROOUT)


 Dipole corrections
   LMONO  =      F    monopole corrections only (constant potential shift)
   LDIPOL =      F    correct potential (dipole corrections)
   IDIPOL =      0    1-x, 2-y, 3-z, 4-all directions 
   EPSILON=  1.0000000 bulk dielectric constant

 LDA+U is selected, type is set to LDAUTYPE =  2
   angular momentum for each species LDAUL =     2   -1
   U (eV)           for each species LDAUU =   4.0  0.0
   J (eV)           for each species LDAUJ =   0.0  0.0
 Exchange correlation treatment:
   GGA     =    --    GGA type
   LEXCH   =     8    internal setting for exchange type
   VOSKOWN=      0    Vosko Wilk Nusair interpolation
   LHFCALC =     F    Hartree Fock is set to
   LHFONE  =     F    Hartree Fock one center treatment
   AEXX    =    0.0000 exact exchange contribution

 Linear response parameters
   LEPSILON=     F    determine dielectric tensor
   LRPA    =     F    only Hartree local field effects (RPA)
   LNABLA  =     F    use nabla operator in PAW spheres
   LVEL    =     F    velocity operator in full k-point grid
   LINTERFAST=   F  fast interpolation
   KINTER  =     0    interpolate to denser k-point grid
   CSHIFT  =0.1000    complex shift for real part using Kramers Kronig
   OMEGAMAX=  -1.0    maximum frequency
   RTIME   =    0.100 relaxation time in fs

 Orbital magnetization related:
   ORBITALMAG=     F  switch on orbital magnetization
   LCHIMAG   =     F  perturbation theory with respect to B field
   DQ        =  0.001000  dq finite difference perturbation B field



--------------------------------------------------------------------------------------------------------


 Static calculation
 charge density and potential will be updated during run
 spin polarized calculation
 RMM-DIIS sequential band-by-band
 perform sub-space diagonalisation
    before iterative eigenvector-optimisation
 modified Broyden-mixing scheme, WC =      100.0
 initial mixing is a Kerker type mixing with AMIX =  0.4000 and BMIX =      1.0000
 Hartree-type preconditioning will be used
 using additional bands           30
 real space projection scheme for non local part
 use partial core corrections
 calculate Harris-corrections to forces 
   (improved forces if not selfconsistent)
 use gradient corrections 
 use of overlap-Matrix (Vanderbilt PP)
 Methfessel and Paxton  Order N= 1 SIGMA  =   0.20


--------------------------------------------------------------------------------------------------------


  energy-cutoff  :      500.00
  volume of cell :      299.53
      direct lattice vectors                 reciprocal lattice vectors
     4.352278094 -2.512788929  0.000000000     0.229764730 -0.000000000  0.000000000
     0.000000000  5.025577859  0.000000000     0.114882365  0.198982093  0.000000000
    -0.000000000 -0.000000000 13.694325367    -0.000000000 -0.000000000  0.073022947

  length of vectors
     5.025577859  5.025577859 13.694325367     0.229764730  0.229764730  0.073022947


 
 k-points in units of 2pi/SCALE and weight: Automatic Mesh                          
   0.00000000  0.00000000  0.00000000       0.040
   0.04595295  0.00000000  0.00000000       0.240
   0.09190589  0.00000000  0.00000000       0.240
   0.06892942  0.03979642  0.00000000       0.240
   0.11488236  0.03979642  0.00000000       0.240
 
 k-points in reciprocal lattice and weights: Automatic Mesh                          
   0.00000000  0.00000000  0.00000000       0.040
   0.20000000  0.00000000  0.00000000       0.240
   0.40000000  0.00000000  0.00000000       0.240
   0.20000000  0.20000000  0.00000000       0.240
   0.40000000  0.20000000  0.00000000       0.240
 
 position of ions in fractional coordinates (direct lattice) 
   0.66666667  0.33333333  0.97833333
   0.00000000  0.00000000  0.85500000
   0.33333333  0.66666667  0.81166667
   0.66666667  0.33333333  0.68833333
   0.00000000  0.00000000  0.64500000
   0.33333333  0.66666667  0.52166667
   0.66666667  0.33333333  0.47833333
   0.00000000  0.00000000  0.35500000
   0.33333333  0.66666667  0.31166667
   0.66666667  0.33333333  0.18833333
   0.00000000  0.00000000  0.14500000
   0.33333333  0.66666667  0.02166667
   0.30000000  0.00000000  0.25000000
   0.96666667  0.33333333  0.58333333
   0.63333333  0.66666667  0.91666667
   0.00000000  0.30000000  0.25000000
   0.66666667  0.63333333  0.58333333
   0.33333333  0.96666667  0.91666667
   0.70000000  0.70000000  0.25000000
   0.36666667  0.03333333  0.58333333
   0.03333333  0.36666667  0.91666667
   0.70000000  0.00000000  0.75000000
   0.36666667  0.33333333  0.08333333
   0.03333333  0.66666667  0.41666667
   0.00000000  0.70000000  0.75000000
   0.66666667  0.03333333  0.08333333
   0.33333333  0.36666667  0.41666667
   0.30000000  0.30000000  0.75000000
   0.96666667  0.63333333  0.08333333
   0.63333333  0.96666667  0.41666667
 
 position of ions in cartesian coordinates  (Angst):
   2.90151873  0.00000000 13.39761498
  -0.00000000 -0.00000000 11.70864819
   1.45075936  2.51278893 11.11522742
   2.90151873  0.00000000  9.42626063
  -0.00000000 -0.00000000  8.83283986
   1.45075936  2.51278893  7.14387307
   2.90151873  0.00000000  6.55045230
  -0.00000000 -0.00000000  4.86148551
   1.45075936  2.51278893  4.26806474
   2.90151873  0.00000000  2.57909794
  -0.00000000 -0.00000000  1.98567718
   1.45075936  2.51278893  0.29671038
   1.30568343 -0.75383668  3.42358134
   4.20720216 -0.75383668  7.98835646
   2.75644279  1.75895225 12.55313159
  -0.00000000  1.50767336  3.42358134
   2.90151873  1.50767336  7.98835646
   1.45075936  4.02046229 12.55313159
   3.04659467  1.75895225  3.42358134
   1.59583530 -0.75383668  7.98835646
   0.14507594  1.75895225 12.55313159
   3.04659467 -1.75895225 10.27074403
   1.59583530  0.75383668  1.14119378
   0.14507594  3.26662561  5.70596890
  -0.00000000  3.51790450 10.27074403
   2.90151873 -1.50767336  1.14119378
   1.45075936  1.00511557  5.70596890
   1.30568343  0.75383668 10.27074403
   4.20720216  0.75383668  1.14119378
   2.75644279  3.26662561  5.70596890
 


--------------------------------------------------------------------------------------------------------


 k-point  1 :  0.00000.00000.0000  plane waves:    7567
 k-point  2 :  0.20000.00000.0000  plane waves:    7598
 k-point  3 :  0.40000.00000.0000  plane waves:    7602
 k-point  4 :  0.20000.20000.0000  plane waves:    7595
 k-point  5 :  0.40000.20000.0000  plane waves:    7615

 maximum and minimum number of plane-waves per node :      7615     7567

 maximum number of plane-waves:      7615
 maximum index in each direction: 
   IXMAX=    9   IYMAX=    9   IZMAX=   24
   IXMIN=   -9   IYMIN=   -9   IZMIN=  -24

 NGX is ok and might be reduce to  38
 NGY is ok and might be reduce to  38
 NGZ is ok and might be reduce to  98

 serial   3D FFT for wavefunctions
 parallel 3D FFT for charge:
    minimum data exchange during FFTs selected (reduces bandwidth)


 total amount of memory used by VASP on root node    85307. kBytes
========================================================================

   base      :      30000. kBytes
   nonlr-proj:      20579. kBytes
   fftplans  :       5388. kBytes
   grid      :      19456. kBytes
   one-center:        933. kBytes
   wavefun   :       8951. kBytes
 
 Broyden mixing: mesh for mixing (old mesh)
   NGX = 19   NGY = 19   NGZ = 49
  (NGX  = 80   NGY  = 80   NGZ  =200)
  gives a total of  17689 points

 initial charge density was supplied:
 charge density of overlapping atoms calculated
 number of electron     276.0000000 magnetization     -20.0000000
 keeping initial charge density in first step


--------------------------------------------------------------------------------------------------------


 Maximum index for non-local projection operator         6982
 Maximum index for augmentation-charges         1192 (set IRDMAX)


--------------------------------------------------------------------------------------------------------


 First call to EWALD:  gamma=   0.265
 Maximum number of real-space cells 4x 4x 2
 Maximum number of reciprocal cells 2x 2x 5

    FEWALD:  cpu time    0.01: real time    0.01


----------------------------------------- Iteration    1(   1)  ---------------------------------------


    POTLOK:  cpu time    0.17: real time    0.17
    SETDIJ:  cpu time    0.89: real time    0.89
    EDDIAG:  cpu time    0.92: real time    0.92
  RMM-DIIS:  cpu time    1.88: real time    1.89
    ORTHCH:  cpu time    0.09: real time    0.09
       DOS:  cpu time    0.00: real time    0.00
    --------------------------------------------
      LOOP:  cpu time    3.95: real time    3.96

 eigenvalue-minimisations  :  1680
 total energy-change (2. order) :-0.2211318E+04  (-0.2016098E+05)
 number of electron     276.0000000 magnetization     -20.0000000
 augmentation part      276.0000000 magnetization     -20.0000000

 Free energy of the ion-electron system (eV)
  ---------------------------------------------------
  alpha Z        PSCENC =      1374.09044373
  Ewald energy   TEWEN  =    -25550.73605827
  -1/2 Hartree   DENC   =    -10366.22690703
  -exchange  EXHF       =         0.00000000
  -V(xc)+E(xc)   XCENC  =      1374.04687354
  PAW double counting   =     30225.52217139   -31227.52155085
  entropy T*S    EENTRO =         0.01646665
  eigenvalues    EBANDS =     -5311.92874579
  atomic energy  EATOM  =     37271.41975024
  ---------------------------------------------------
  free energy    TOTEN  =     -2211.31755639 eV

  energy without entropy =    -2211.33402304  energy(sigma->0) =    -2211.32304527


--------------------------------------------------------------------------------------------------------




----------------------------------------- Iteration    1(   2)  ---------------------------------------


    EDDIAG:  cpu time    0.90: real time    0.91
  RMM-DIIS:  cpu time    1.88: real time    1.89
    ORTHCH:  cpu time    0.09: real time    0.09
       DOS:  cpu time    0.00: real time    0.00
    --------------------------------------------
      LOOP:  cpu time    2.88: real time    2.88

 eigenvalue-minimisations  :  1680
 total energy-change (2. order) : 0.2364903E+04  (-0.3162877E+04)
 number of electron     276.0000000 magnetization     -20.0000000
 augmentation part      276.0000000 magnetization     -20.0000000

 Free energy of the ion-electron system (eV)
  ---------------------------------------------------
  alpha Z        PSCENC =      1374.09044373
  Ewald energy   TEWEN  =    -25550.73605827
  -1/2 Hartree   DENC   =    -10366.22690703
  -exchange  EXHF       =         0.00000000
  -V(xc)+E(xc)   XCENC  =      1374.04687354
  PAW double counting   =     30225.52217139   -31227.52155085
  entropy T*S    EENTRO =        -0.04206452
  eigenvalues    EBANDS =     -2946.96746968
  atomic energy  EATOM  =     37271.41975024
  ---------------------------------------------------
  free energy    TOTEN  =       153.58518855 eV

  energy without entropy =      153.62725308  energy(sigma->0) =      153.59921006


--------------------------------------------------------------------------------------------------------




----------------------------------------- Iteration    1(   3)  ---------------------------------------


    EDDIAG:  cpu time    0.91: real time    0.91
  RMM-DIIS:  cpu time    1.88: real time    1.89
    ORTHCH:  cpu time    0.09: real time    0.09
       DOS:  cpu time    0.00: real time    0.00
    --------------------------------------------
      LOOP:  cpu time    2.88: real time    2.89

 eigenvalue-minimisations  :  1680
 total energy-change (2. order) :-0.1510296E+03  (-0.6800422E+03)
 number of electron     276.0000000 magnetization     -20.0000000
 augmentation part      276.0000000 magnetization     -20.0000000

 Free energy of the ion-electron system (eV)
  ---------------------------------------------------
  alpha Z        PSCENC =      1374.09044373
  Ewald energy   TEWEN  =    -25550.73605827
  -1/2 Hartree   DENC   =    -10366.22690703
  -exchange  EXHF       =         0.00000000
  -V(xc)+E(xc)   XCENC  =      1374.04687354
  PAW double counting   =     30225.52217139   -31227.52155085
  entropy T*S    EENTRO =        -0.00711389
  eigenvalues    EBANDS =     -3098.03205981
  atomic energy  EATOM  =     37271.41975024
  ---------------------------------------------------
  free energy    TOTEN  =         2.55554905 eV

  energy without entropy =        2.56266294  energy(sigma->0) =        2.55792034


--------------------------------------------------------------------------------------------------------




----------------------------------------- Iteration    1(   4)  ---------------------------------------


    EDDIAG:  cpu time    0.91: real time    0.91
  RMM-DIIS:  cpu time    1.89: real time    1.89
    ORTHCH:  cpu time    0.09: real time    0.09
       DOS:  cpu time    0.00: real time    0.00
    --------------------------------------------
      LOOP:  cpu time    2.89: real time    2.89

 eigenvalue-minimisations  :  1680
 total energy-change (2. order) :-0.1740725E+03  (-0.2142709E+03)
 number of electron     276.0000000 magnetization     -20.0000000
 augmentation part      276.0000000 magnetization     -20.0000000

 Free energy of the ion-electron system (eV)
  ---------------------------------------------------
  alpha Z        PSCENC =      1374.09044373
  Ewald energy   TEWEN  =    -25550.73605827
  -1/2 Hartree   DENC   =    -10366.22690703
  -exchange  EXHF       =         0.00000000
  -V(xc)+E(xc)   XCENC  =      1374.04687354
  PAW double counting   =     30225.52217139   -31227.52155085
  entropy T*S    EENTRO =         0.00305558
  eigenvalues    EBANDS =     -3272.11474785
  atomic energy  EATOM  =     37271.41975024
  ---------------------------------------------------
  free energy    TOTEN  =      -171.51696951 eV

  energy without entropy =     -171.52002509  energy(sigma->0) =     -171.51798804


--------------------------------------------------------------------------------------------------------




----------------------------------------- Iteration    1(   5)  ---------------------------------------


    EDDIAG:  cpu time    0.91: real time    0.91
  RMM-DIIS:  cpu time    1.92: real time    1.95
    ORTHCH:  cpu time    0.09: real time    0.09
       DOS:  cpu time    0.00: real time    0.00
    --------------------------------------------
      LOOP:  cpu time    2.92: real time    2.95

 eigenvalue-minimisations  :  1680
 total energy-change (2. order) :-0.7401745E+02  (-0.7632467E+02)
 number of electron     276.0000000 magnetization     -20.0000000
 augmentation part      276.0000000 magnetization     -20.0000000

 Free energy of the ion-electron system (eV)
  ---------------------------------------------------
  alpha Z        PSCENC =      1374.09044373
  Ewald energy   TEWEN  =    -25550.73605827
  -1/2 Hartree   DENC   =    -10366.22690703
  -exchange  EXHF       =         0.00000000
  -V(xc)+E(xc)   XCENC  =      1374.04687354
  PAW double counting   =     30225.52217139   -31227.52155085
  entropy T*S    EENTRO =         0.00571564
  eigenvalues    EBANDS =     -3346.13485568
  atomic energy  EATOM  =     37271.41975024
  ---------------------------------------------------
  free energy    TOTEN  =      -245.53441729 eV

  energy without entropy =     -245.54013293  energy(sigma->0) =     -245.53632250


--------------------------------------------------------------------------------------------------------




----------------------------------------- Iteration    1(   6)  ---------------------------------------


    EDDIAG:  cpu time    0.91: real time    0.91
  RMM-DIIS:  cpu time    1.88: real time    1.89
    ORTHCH:  cpu time    0.09: real time    0.09
       DOS:  cpu time    0.00: real time    0.00
    --------------------------------------------
      LOOP:  cpu time    2.89: real time    2.89

 eigenvalue-minimisations  :  1680
 total energy-change (2. order) :-0.2160134E+02  (-0.3340152E+02)
 number of electron     276.0000000 magnetization     -20.0000000
 augmentation part      276.0000000 magnetization     -20.0000000

 Free energy of the ion-electron system (eV)
  ---------------------------------------------------
  alpha Z        PSCENC =      1374.09044373
  Ewald energy   TEWEN  =    -25550.73605827
  -1/2 Hartree   DENC   =    -10366.22690703
  -exchange  EXHF       =         0.00000000
  -V(xc)+E(xc)   XCENC  =      1374.04687354
  PAW double counting   =     30225.52217139   -31227.52155085
  entropy T*S    EENTRO =         0.01298256
  eigenvalues    EBANDS =     -3367.74345839
  atomic energy  EATOM  =     37271.41975024
  ---------------------------------------------------
  free energy    TOTEN  =      -267.13575308 eV

  energy without entropy =     -267.14873563  energy(sigma->0) =     -267.14008060


--------------------------------------------------------------------------------------------------------




----------------------------------------- Iteration    1(   7)  ---------------------------------------


    EDDIAG:  cpu time    0.90: real time    0.91
  RMM-DIIS:  cpu time    1.89: real time    1.89
    ORTHCH:  cpu time    0.09: real time    0.09
       DOS:  cpu time    0.00: real time    0.00
    --------------------------------------------
      LOOP:  cpu time    2.89: real time    2.89

 eigenvalue-minimisations  :  1680
 total energy-change (2. order) :-0.1452325E+01  (-0.9187995E+01)
 number of electron     276.0000000 magnetization     -20.0000000
 augmentation part      276.0000000 magnetization     -20.0000000

 Free energy of the ion-electron system (eV)
  ---------------------------------------------------
  alpha Z        PSCENC =      1374.09044373
  Ewald energy   TEWEN  =    -25550.73605827
  -1/2 Hartree   DENC   =    -10366.22690703
  -exchange  EXHF       =         0.00000000
  -V(xc)+E(xc)   XCENC  =      1374.04687354
  PAW double counting   =     30225.52217139   -31227.52155085
  entropy T*S    EENTRO =         0.02610459
  eigenvalues    EBANDS =     -3369.20890532
  atomic energy  EATOM  =     37271.41975024
  ---------------------------------------------------
  free energy    TOTEN  =      -268.58807798 eV

  energy without entropy =     -268.61418257  energy(sigma->0) =     -268.59677951


--------------------------------------------------------------------------------------------------------




----------------------------------------- Iteration    1(   8)  ---------------------------------------


    EDDIAG:  cpu time    0.92: real time    0.92
  RMM-DIIS:  cpu time    1.89: real time    1.89
    ORTHCH:  cpu time    0.09: real time    0.09
       DOS:  cpu time    0.00: real time    0.00
    --------------------------------------------
      LOOP:  cpu time    2.90: real time    2.90

 eigenvalue-minimisations  :  1680
 total energy-change (2. order) :-0.1256395E+01  (-0.3857941E+01)
 number of electron     276.0000000 magnetization     -20.0000000
 augmentation part      276.0000000 magnetization     -20.0000000

 Free energy of the ion-electron system (eV)
  ---------------------------------------------------
  alpha Z        PSCENC =      1374.09044373
  Ewald energy   TEWEN  =    -25550.73605827
  -1/2 Hartree   DENC   =    -10366.22690703
  -exchange  EXHF       =         0.00000000
  -V(xc)+E(xc)   XCENC  =      1374.04687354
  PAW double counting   =     30225.52217139   -31227.52155085
  entropy T*S    EENTRO =         0.02850230
  eigenvalues    EBANDS =     -3370.46769822
  atomic energy  EATOM  =     37271.41975024
  ---------------------------------------------------
  free energy    TOTEN  =      -269.84447317 eV

  energy without entropy =     -269.87297547  energy(sigma->0) =     -269.85397393


--------------------------------------------------------------------------------------------------------




----------------------------------------- Iteration    1(   9)  ---------------------------------------


    EDDIAG:  cpu time    0.90: real time    0.91
  RMM-DIIS:  cpu time    5.16: real time    5.17
    ORTHCH:  cpu time    0.09: real time    0.09
       DOS:  cpu time    0.00: real time    0.00
    --------------------------------------------
      LOOP:  cpu time    6.15: real time    6.16

 eigenvalue-minimisations  :  4942
 total energy-change (2. order) :-0.2218380E+00  (-0.1484777E+01)
 number of electron     276.0000000 magnetization     -20.0000000
 augmentation part      276.0000000 magnetization     -20.0000000

 Free energy of the ion-electron system (eV)
  ---------------------------------------------------
  alpha Z        PSCENC =      1374.09044373
  Ewald energy   TEWEN  =    -25550.73605827
  -1/2 Hartree   DENC   =    -10366.22690703
  -exchange  EXHF       =         0.00000000
  -V(xc)+E(xc)   XCENC  =      1374.04687354
  PAW double counting   =     30225.52217139   -31227.52155085
  entropy T*S    EENTRO =         0.02628709
  eigenvalues    EBANDS =     -3370.68732097
  atomic energy  EATOM  =     37271.41975024
  ---------------------------------------------------
  free energy    TOTEN  =      -270.06631113 eV

  energy without entropy =     -270.09259822  energy(sigma->0) =     -270.07507349


--------------------------------------------------------------------------------------------------------




----------------------------------------- Iteration    1(  10)  ---------------------------------------


    EDDIAG:  cpu time    0.90: real time    0.90
  RMM-DIIS:  cpu time    6.12: real time    6.13
    ORTHCH:  cpu time    0.09: real time    0.09
       DOS:  cpu time    0.00: real time    0.00
    --------------------------------------------
      LOOP:  cpu time    7.11: real time    7.13

 eigenvalue-minimisations  :  5853
 total energy-change (2. order) :-0.2652795E+00  (-0.3403637E+00)
 number of electron     276.0000000 magnetization     -20.0000000
 augmentation part      276.0000000 magnetization     -20.0000000

 Free energy of the ion-electron system (eV)
  ---------------------------------------------------
  alpha Z        PSCENC =      1374.09044373
  Ewald energy   TEWEN  =    -25550.73605827
  -1/2 Hartree   DENC   =    -10366.22690703
  -exchange  EXHF       =         0.00000000
  -V(xc)+E(xc)   XCENC  =      1374.04687354
  PAW double counting   =     30225.52217139   -31227.52155085
  entropy T*S    EENTRO =         0.02633559
  eigenvalues    EBANDS =     -3370.95264902
  atomic energy  EATOM  =     37271.41975024
  ---------------------------------------------------
  free energy    TOTEN  =      -270.33159068 eV

  energy without entropy =     -270.35792627  energy(sigma->0) =     -270.34036921


--------------------------------------------------------------------------------------------------------




----------------------------------------- Iteration    1(  11)  ---------------------------------------


    EDDIAG:  cpu time    0.91: real time    0.91
  RMM-DIIS:  cpu time    5.70: real time    5.71
    ORTHCH:  cpu time    0.09: real time    0.09
       DOS:  cpu time    0.00: real time    0.00
    --------------------------------------------
      LOOP:  cpu time    6.70: real time    6.71

 eigenvalue-minimisations  :  5462
 total energy-change (2. order) : 0.6371625E-01  (-0.2729402E-01)
 number of electron     276.0000000 magnetization     -20.0000000
 augmentation part      276.0000000 magnetization     -20.0000000

 Free energy of the ion-electron system (eV)
  ---------------------------------------------------
  alpha Z        PSCENC =      1374.09044373
  Ewald energy   TEWEN  =    -25550.73605827
  -1/2 Hartree   DENC   =    -10366.22690703
  -exchange  EXHF       =         0.00000000
  -V(xc)+E(xc)   XCENC  =      1374.04687354
  PAW double counting   =     30225.52217139   -31227.52155085
  entropy T*S    EENTRO =         0.02621290
  eigenvalues    EBANDS =     -3370.88881008
  atomic energy  EATOM  =     37271.41975024
  ---------------------------------------------------
  free energy    TOTEN  =      -270.26787443 eV

  energy without entropy =     -270.29408732  energy(sigma->0) =     -270.27661206


--------------------------------------------------------------------------------------------------------




----------------------------------------- Iteration    1(  12)  ---------------------------------------


    EDDIAG:  cpu time    0.90: real time    0.91
  RMM-DIIS:  cpu time    5.35: real time    5.35
    ORTHCH:  cpu time    0.09: real time    0.09
       DOS:  cpu time    0.00: real time    0.00
    CHARGE:  cpu time    0.40: real time    0.40
    MIXING:  cpu time    0.00: real time    0.00
    --------------------------------------------
      LOOP:  cpu time    6.75: real time    6.76

 eigenvalue-minimisations  :  5022
 total energy-change (2. order) : 0.9049698E-03  (-0.5097029E-02)
 number of electron     276.0000031 magnetization     -19.9999109
 augmentation part      108.3470108 magnetization     -13.1780480

 Broyden mixing:
  rms(total) = 0.85935E+01    rms(broyden)= 0.85930E+01
  rms(prec ) = 0.92860E+01
  weight for this iteration     100.00

 Free energy of the ion-electron system (eV)
  ---------------------------------------------------
  alpha Z        PSCENC =      1374.09044373
  Ewald energy   TEWEN  =    -25550.73605827
  -1/2 Hartree   DENC   =    -10366.22690703
  -exchange  EXHF       =         0.00000000
  -V(xc)+E(xc)   XCENC  =      1374.04687354
  PAW double counting   =     30225.52217139   -31227.52155085
  entropy T*S    EENTRO =         0.02622522
  eigenvalues    EBANDS =     -3370.88791743
  atomic energy  EATOM  =     37271.41975024
  ---------------------------------------------------
  free energy    TOTEN  =      -270.26696946 eV

  energy without entropy =     -270.29319468  energy(sigma->0) =     -270.27571120


--------------------------------------------------------------------------------------------------------




----------------------------------------- Iteration    1(  13)  ---------------------------------------


    POTLOK:  cpu time    0.15: real time    0.15
    SETDIJ:  cpu time    0.91: real time    0.91
    EDDIAG:  cpu time    0.91: real time    0.91
  RMM-DIIS:  cpu time    4.56: real time    4.57
    ORTHCH:  cpu time    0.09: real time    0.09
       DOS:  cpu time    0.00: real time    0.00
    CHARGE:  cpu time    0.38: real time    0.38
    MIXING:  cpu time    0.00: real time    0.00
    --------------------------------------------
      LOOP:  cpu time    7.01: real time    7.02

 eigenvalue-minimisations  :  4121
 total energy-change (2. order) : 0.6438856E+02  (-0.5456303E+02)
 number of electron     276.0000040 magnetization     -19.9996557
 augmentation part      112.9942371 magnetization     -13.5341532

 Broyden mixing:
  rms(total) = 0.97839E+01    rms(broyden)= 0.97835E+01
  rms(prec ) = 0.98132E+01
  weight for this iteration     100.00

 eigenvalues of (default mixing * dielectric matrix)
  average eigenvalue GAMMA=   0.0074
  0.0074

 Free energy of the ion-electron system (eV)
  ---------------------------------------------------
  alpha Z        PSCENC =      1374.09044373
  Ewald energy   TEWEN  =    -25550.73605827
  -1/2 Hartree   DENC   =     -9983.59559334
  -exchange  EXHF       =         0.00000000
  -V(xc)+E(xc)   XCENC  =      1374.97685993
  PAW double counting   =     31549.50623389   -32454.72464203
  entropy T*S    EENTRO =         0.02297077
  eigenvalues    EBANDS =     -3786.83837038
  atomic energy  EATOM  =     37271.41975024
  ---------------------------------------------------
  free energy    TOTEN  =      -205.87840545 eV

  energy without entropy =     -205.90137622  energy(sigma->0) =     -205.88606237


--------------------------------------------------------------------------------------------------------




----------------------------------------- Iteration    1(  14)  ---------------------------------------


    POTLOK:  cpu time    0.15: real time    0.15
    SETDIJ:  cpu time    0.91: real time    0.92
    EDDIAG:  cpu time    0.91: real time    0.91
  RMM-DIIS:  cpu time    4.99: real time    5.00
    ORTHCH:  cpu time    0.09: real time    0.09
       DOS:  cpu time    0.00: real time    0.00
    CHARGE:  cpu time    0.38: real time    0.38
    MIXING:  cpu time    0.00: real time    0.00
    --------------------------------------------
      LOOP:  cpu time    7.45: real time    7.46

 eigenvalue-minimisations  :  4565
 total energy-change (2. order) : 0.1678347E-01  (-0.1602240E+01)
 number of electron     276.0000040 magnetization     -19.9996915
 augmentation part      112.6599643 magnetization     -13.4247903

 Broyden mixing:
  rms(total) = 0.58222E+01    rms(broyden)= 0.58222E+01
  rms(prec ) = 0.58526E+01
  weight for this iteration     100.00

 eigenvalues of (default mixing * dielectric matrix)
  average eigenvalue GAMMA=   0.7058
  0.7058  0.7058

 Free energy of the ion-electron system (eV)
  ---------------------------------------------------
  alpha Z        PSCENC =      1374.09044373
  Ewald energy   TEWEN  =    -25550.73605827
  -1/2 Hartree   DENC   =     -9987.12631298
  -exchange  EXHF       =         0.00000000
  -V(xc)+E(xc)   XCENC  =      1372.28016156
  PAW double counting   =     32679.95321509   -33644.74990596
  entropy T*S    EENTRO =         0.02088916
  eigenvalues    EBANDS =     -3721.01380454
  atomic energy  EATOM  =     37271.41975024
  ---------------------------------------------------
  free energy    TOTEN  =      -205.86162197 eV

  energy without entropy =     -205.88251113  energy(sigma->0) =     -205.86858503


--------------------------------------------------------------------------------------------------------




----------------------------------------- Iteration    1(  15)  ---------------------------------------


    POTLOK:  cpu time    0.15: real time    0.15
    SETDIJ:  cpu time    0.91: real time    0.91
    EDDIAG:  cpu time    0.92: real time    0.92
  RMM-DIIS:  cpu time    4.49: real time    4.49
    ORTHCH:  cpu time    0.09: real time    0.09
       DOS:  cpu time    0.00: real time    0.00
    CHARGE:  cpu time    0.38: real time    0.38
    MIXING:  cpu time    0.00: real time    0.00
    --------------------------------------------
      LOOP:  cpu time    6.94: real time    6.95

 eigenvalue-minimisations  :  4196
 total energy-change (2. order) : 0.1214579E+01  (-0.1582663E+01)
 number of electron     276.0000038 magnetization     -19.9990980
 augmentation part      111.4878795 magnetization     -13.5714557

 Broyden mixing:
  rms(total) = 0.37816E+01    rms(broyden)= 0.37815E+01
  rms(prec ) = 0.38021E+01
  weight for this iteration     100.00

 eigenvalues of (default mixing * dielectric matrix)
  average eigenvalue GAMMA=   1.1361
  2.0960  0.6561  0.6561

 Free energy of the ion-electron system (eV)
  ---------------------------------------------------
  alpha Z        PSCENC =      1374.09044373
  Ewald energy   TEWEN  =    -25550.73605827
  -1/2 Hartree   DENC   =     -9981.94799552
  -exchange  EXHF       =         0.00000000
  -V(xc)+E(xc)   XCENC  =      1368.16112357
  PAW double counting   =     34787.83638144   -35802.33979717
  entropy T*S    EENTRO =         0.02127675
  eigenvalues    EBANDS =     -3671.15216809
  atomic energy  EATOM  =     37271.41975024
  ---------------------------------------------------
  free energy    TOTEN  =      -204.64704331 eV

  energy without entropy =     -204.66832006  energy(sigma->0) =     -204.65413556


--------------------------------------------------------------------------------------------------------




----------------------------------------- Iteration    1(  16)  ---------------------------------------


    POTLOK:  cpu time    0.15: real time    0.15
    SETDIJ:  cpu time    0.91: real time    0.91
    EDDIAG:  cpu time    0.91: real time    0.92
  RMM-DIIS:  cpu time    5.00: real time    5.01
    ORTHCH:  cpu time    0.09: real time    0.09
       DOS:  cpu time    0.00: real time    0.00
    CHARGE:  cpu time    0.38: real time    0.39
    MIXING:  cpu time    0.00: real time    0.00
    --------------------------------------------
      LOOP:  cpu time    7.46: real time    7.47

 eigenvalue-minimisations  :  4648
 total energy-change (2. order) : 0.6052537E+00  (-0.2709744E+00)
 number of electron     276.0000038 magnetization     -19.9989821
 augmentation part      112.1477714 magnetization     -13.5667528

 Broyden mixing:
  rms(total) = 0.95942E+00    rms(broyden)= 0.95941E+00
  rms(prec ) = 0.96346E+00
  weight for this iteration     100.00

 eigenvalues of (default mixing * dielectric matrix)
  average eigenvalue GAMMA=   1.1428
  2.6109  0.6404  0.6404  0.6797

 Free energy of the ion-electron system (eV)
  ---------------------------------------------------
  alpha Z        PSCENC =      1374.09044373
  Ewald energy   TEWEN  =    -25550.73605827
  -1/2 Hartree   DENC   =     -9883.86534361
  -exchange  EXHF       =         0.00000000
  -V(xc)+E(xc)   XCENC  =      1368.66675419
  PAW double counting   =     37318.85031706   -38384.80057967
  entropy T*S    EENTRO =         0.02187462
  eigenvalues    EBANDS =     -3717.68894791
  atomic energy  EATOM  =     37271.41975024
  ---------------------------------------------------
  free energy    TOTEN  =      -204.04178960 eV

  energy without entropy =     -204.06366423  energy(sigma->0) =     -204.04908114


--------------------------------------------------------------------------------------------------------




----------------------------------------- Iteration    1(  17)  ---------------------------------------


    POTLOK:  cpu time    0.15: real time    0.15
    SETDIJ:  cpu time    0.91: real time    0.91
    EDDIAG:  cpu time    0.91: real time    0.92
  RMM-DIIS:  cpu time    5.07: real time    5.07
    ORTHCH:  cpu time    0.09: real time    0.09
       DOS:  cpu time    0.00: real time    0.00
    CHARGE:  cpu time    0.38: real time    0.38
    MIXING:  cpu time    0.00: real time    0.00
    --------------------------------------------
      LOOP:  cpu time    7.52: real time    7.54

 eigenvalue-minimisations  :  4734
 total energy-change (2. order) :-0.7176287E-01  (-0.3501509E-01)
 number of electron     276.0000038 magnetization     -19.9986808
 augmentation part      112.1545828 magnetization     -13.4992656

 Broyden mixing:
  rms(total) = 0.20801E+00    rms(broyden)= 0.20798E+00
  rms(prec ) = 0.21350E+00
  weight for this iteration     100.00

 eigenvalues of (default mixing * dielectric matrix)
  average eigenvalue GAMMA=   1.0381
  2.6233  0.6670  0.6670  0.6167  0.6167

 Free energy of the ion-electron system (eV)
  ---------------------------------------------------
  alpha Z        PSCENC =      1374.09044373
  Ewald energy   TEWEN  =    -25550.73605827
  -1/2 Hartree   DENC   =     -9885.89467442
  -exchange  EXHF       =         0.00000000
  -V(xc)+E(xc)   XCENC  =      1367.36439260
  PAW double counting   =     37758.13792349   -38832.05286909
  entropy T*S    EENTRO =         0.02219076
  eigenvalues    EBANDS =     -3706.46465152
  atomic energy  EATOM  =     37271.41975024
  ---------------------------------------------------
  free energy    TOTEN  =      -204.11355247 eV

  energy without entropy =     -204.13574324  energy(sigma->0) =     -204.12094940


--------------------------------------------------------------------------------------------------------




----------------------------------------- Iteration    1(  18)  ---------------------------------------


    POTLOK:  cpu time    0.15: real time    0.15
    SETDIJ:  cpu time    0.91: real time    0.91
    EDDIAG:  cpu time    0.91: real time    0.91
  RMM-DIIS:  cpu time    5.05: real time    5.06
    ORTHCH:  cpu time    0.09: real time    0.09
       DOS:  cpu time    0.00: real time    0.00
    CHARGE:  cpu time    0.38: real time    0.38
    MIXING:  cpu time    0.00: real time    0.00
    --------------------------------------------
      LOOP:  cpu time    7.50: real time    7.52

 eigenvalue-minimisations  :  4747
 total energy-change (2. order) :-0.6544429E-02  (-0.5151543E-02)
 number of electron     276.0000038 magnetization     -19.9983642
 augmentation part      112.1198387 magnetization     -13.4847982

 Broyden mixing:
  rms(total) = 0.10198E+00    rms(broyden)= 0.10197E+00
  rms(prec ) = 0.10796E+00
  weight for this iteration     100.00

 eigenvalues of (default mixing * dielectric matrix)
  average eigenvalue GAMMA=   1.0144
  2.6043  0.8013  0.8013  0.6671  0.6671  0.5455

 Free energy of the ion-electron system (eV)
  ---------------------------------------------------
  alpha Z        PSCENC =      1374.09044373
  Ewald energy   TEWEN  =    -25550.73605827
  -1/2 Hartree   DENC   =     -9894.46474743
  -exchange  EXHF       =         0.00000000
  -V(xc)+E(xc)   XCENC  =      1367.43744940
  PAW double counting   =     37771.17153603   -38845.65021508
  entropy T*S    EENTRO =         0.02209570
  eigenvalues    EBANDS =     -3697.41035123
  atomic energy  EATOM  =     37271.41975024
  ---------------------------------------------------
  free energy    TOTEN  =      -204.12009690 eV

  energy without entropy =     -204.14219260  energy(sigma->0) =     -204.12746214


--------------------------------------------------------------------------------------------------------




----------------------------------------- Iteration    1(  19)  ---------------------------------------


    POTLOK:  cpu time    0.15: real time    0.15
    SETDIJ:  cpu time    0.91: real time    0.91
    EDDIAG:  cpu time    0.91: real time    0.91
  RMM-DIIS:  cpu time    4.59: real time    4.60
    ORTHCH:  cpu time    0.09: real time    0.09
       DOS:  cpu time    0.00: real time    0.00
    CHARGE:  cpu time    0.38: real time    0.39
    MIXING:  cpu time    0.00: real time    0.01
    --------------------------------------------
      LOOP:  cpu time    7.05: real time    7.06

 eigenvalue-minimisations  :  4264
 total energy-change (2. order) : 0.1406819E-02  (-0.2500416E-02)
 number of electron     276.0000038 magnetization     -19.9979320
 augmentation part      112.0628300 magnetization     -13.4825617

 Broyden mixing:
  rms(total) = 0.48383E-01    rms(broyden)= 0.48381E-01
  rms(prec ) = 0.50924E-01
  weight for this iteration     100.00

 eigenvalues of (default mixing * dielectric matrix)
  average eigenvalue GAMMA=   1.0538
  2.5847  1.2916  0.8763  0.6932  0.6932  0.6188  0.6188

 Free energy of the ion-electron system (eV)
  ---------------------------------------------------
  alpha Z        PSCENC =      1374.09044373
  Ewald energy   TEWEN  =    -25550.73605827
  -1/2 Hartree   DENC   =     -9903.66427278
  -exchange  EXHF       =         0.00000000
  -V(xc)+E(xc)   XCENC  =      1367.54977948
  PAW double counting   =     37764.78928038   -38838.47567294
  entropy T*S    EENTRO =         0.02209191
  eigenvalues    EBANDS =     -3689.11403185
  atomic energy  EATOM  =     37271.41975024
  ---------------------------------------------------
  free energy    TOTEN  =      -204.11869009 eV

  energy without entropy =     -204.14078200  energy(sigma->0) =     -204.12605406


--------------------------------------------------------------------------------------------------------




----------------------------------------- Iteration    1(  20)  ---------------------------------------


    POTLOK:  cpu time    0.15: real time    0.15
    SETDIJ:  cpu time    0.91: real time    0.91
    EDDIAG:  cpu time    0.91: real time    0.92
  RMM-DIIS:  cpu time    4.47: real time    4.48
    ORTHCH:  cpu time    0.09: real time    0.09
       DOS:  cpu time    0.00: real time    0.00
    CHARGE:  cpu time    0.38: real time    0.38
    MIXING:  cpu time    0.01: real time    0.01
    --------------------------------------------
      LOOP:  cpu time    6.93: real time    6.94

 eigenvalue-minimisations  :  4098
 total energy-change (2. order) :-0.2978297E-03  (-0.1183779E-02)
 number of electron     276.0000038 magnetization     -19.9978037
 augmentation part      112.0319674 magnetization     -13.4794244

 Broyden mixing:
  rms(total) = 0.22594E-01    rms(broyden)= 0.22592E-01
  rms(prec ) = 0.23053E-01
  weight for this iteration     100.00

 eigenvalues of (default mixing * dielectric matrix)
  average eigenvalue GAMMA=   1.0400
  2.5544  1.3726  1.0662  0.6886  0.6886  0.6896  0.6301  0.6301

 Free energy of the ion-electron system (eV)
  ---------------------------------------------------
  alpha Z        PSCENC =      1374.09044373
  Ewald energy   TEWEN  =    -25550.73605827
  -1/2 Hartree   DENC   =     -9910.76827758
  -exchange  EXHF       =         0.00000000
  -V(xc)+E(xc)   XCENC  =      1367.73769923
  PAW double counting   =     37761.94043612   -38834.08805722
  entropy T*S    EENTRO =         0.02201411
  eigenvalues    EBANDS =     -3683.73693827
  atomic energy  EATOM  =     37271.41975024
  ---------------------------------------------------
  free energy    TOTEN  =      -204.11898791 eV

  energy without entropy =     -204.14100202  energy(sigma->0) =     -204.12632595


--------------------------------------------------------------------------------------------------------




----------------------------------------- Iteration    1(  21)  ---------------------------------------


    POTLOK:  cpu time    0.15: real time    0.15
    SETDIJ:  cpu time    0.91: real time    0.91
    EDDIAG:  cpu time    0.91: real time    0.91
  RMM-DIIS:  cpu time    5.34: real time    5.35
    ORTHCH:  cpu time    0.09: real time    0.09
       DOS:  cpu time    0.00: real time    0.00
    CHARGE:  cpu time    0.38: real time    0.38
    MIXING:  cpu time    0.01: real time    0.01
    --------------------------------------------
      LOOP:  cpu time    7.79: real time    7.81

 eigenvalue-minimisations  :  4965
 total energy-change (2. order) : 0.1088991E-03  (-0.7129540E-04)
 number of electron     276.0000038 magnetization     -19.9976272
 augmentation part      112.0319769 magnetization     -13.4807159

 Broyden mixing:
  rms(total) = 0.12457E-01    rms(broyden)= 0.12457E-01
  rms(prec ) = 0.12704E-01
  weight for this iteration     100.00

 eigenvalues of (default mixing * dielectric matrix)
  average eigenvalue GAMMA=   1.0920
  2.5358  2.0840  0.9973  0.9314  0.6767  0.6767  0.6555  0.6354  0.6354

 Free energy of the ion-electron system (eV)
  ---------------------------------------------------
  alpha Z        PSCENC =      1374.09044373
  Ewald energy   TEWEN  =    -25550.73605827
  -1/2 Hartree   DENC   =     -9910.81310156
  -exchange  EXHF       =         0.00000000
  -V(xc)+E(xc)   XCENC  =      1367.75490863
  PAW double counting   =     37754.63519691   -38825.96840412
  entropy T*S    EENTRO =         0.02204608
  eigenvalues    EBANDS =     -3684.52366067
  atomic energy  EATOM  =     37271.41975024
  ---------------------------------------------------
  free energy    TOTEN  =      -204.11887902 eV

  energy without entropy =     -204.14092510  energy(sigma->0) =     -204.12622771


--------------------------------------------------------------------------------------------------------




----------------------------------------- Iteration    1(  22)  ---------------------------------------


    POTLOK:  cpu time    0.15: real time    0.15
    SETDIJ:  cpu time    0.91: real time    0.91
    EDDIAG:  cpu time    0.91: real time    0.91
  RMM-DIIS:  cpu time    4.65: real time    4.65
    ORTHCH:  cpu time    0.09: real time    0.09
       DOS:  cpu time    0.00: real time    0.00
    CHARGE:  cpu time    0.38: real time    0.38
    MIXING:  cpu time    0.01: real time    0.01
    --------------------------------------------
      LOOP:  cpu time    7.10: real time    7.11

 eigenvalue-minimisations  :  4382
 total energy-change (2. order) :-0.1531787E-03  (-0.2567411E-04)
 number of electron     276.0000038 magnetization     -19.9975182
 augmentation part      112.0380911 magnetization     -13.4801462

 Broyden mixing:
  rms(total) = 0.63129E-02    rms(broyden)= 0.63120E-02
  rms(prec ) = 0.65538E-02
  weight for this iteration     100.00

 eigenvalues of (default mixing * dielectric matrix)
  average eigenvalue GAMMA=   1.1205
  2.5307  2.3820  1.4341  0.8594  0.7040  0.7040  0.6512  0.6512  0.6441  0.6441

 Free energy of the ion-electron system (eV)
  ---------------------------------------------------
  alpha Z        PSCENC =      1374.09044373
  Ewald energy   TEWEN  =    -25550.73605827
  -1/2 Hartree   DENC   =     -9911.14057938
  -exchange  EXHF       =         0.00000000
  -V(xc)+E(xc)   XCENC  =      1367.76087889
  PAW double counting   =     37758.22558523   -38829.10859587
  entropy T*S    EENTRO =         0.02207098
  eigenvalues    EBANDS =     -3684.65252775
  atomic energy  EATOM  =     37271.41975024
  ---------------------------------------------------
  free energy    TOTEN  =      -204.11903219 eV

  energy without entropy =     -204.14110317  energy(sigma->0) =     -204.12638919


--------------------------------------------------------------------------------------------------------




----------------------------------------- Iteration    1(  23)  ---------------------------------------


    POTLOK:  cpu time    0.15: real time    0.15
    SETDIJ:  cpu time    0.91: real time    0.91
    EDDIAG:  cpu time    0.86: real time    0.86
  RMM-DIIS:  cpu time    4.39: real time    4.39
    ORTHCH:  cpu time    0.09: real time    0.09
       DOS:  cpu time    0.00: real time    0.00
    CHARGE:  cpu time    0.38: real time    0.38
    MIXING:  cpu time    0.01: real time    0.01
    --------------------------------------------
      LOOP:  cpu time    6.79: real time    6.80

 eigenvalue-minimisations  :  3966
 total energy-change (2. order) :-0.1430083E-04  (-0.7684424E-05)
 number of electron     276.0000038 magnetization     -19.9974741
 augmentation part      112.0364836 magnetization     -13.4808076

 Broyden mixing:
  rms(total) = 0.34676E-02    rms(broyden)= 0.34672E-02
  rms(prec ) = 0.35431E-02
  weight for this iteration     100.00

 eigenvalues of (default mixing * dielectric matrix)
  average eigenvalue GAMMA=   1.1048
  2.7324  2.4508  1.2910  0.9942  0.6836  0.6836  0.7018  0.7018  0.6728  0.6205
  0.6205

 Free energy of the ion-electron system (eV)
  ---------------------------------------------------
  alpha Z        PSCENC =      1374.09044373
  Ewald energy   TEWEN  =    -25550.73605827
  -1/2 Hartree   DENC   =     -9911.55488213
  -exchange  EXHF       =         0.00000000
  -V(xc)+E(xc)   XCENC  =      1367.76531665
  PAW double counting   =     37757.77748492   -38828.42645566
  entropy T*S    EENTRO =         0.02206916
  eigenvalues    EBANDS =     -3684.47671514
  atomic energy  EATOM  =     37271.41975024
  ---------------------------------------------------
  free energy    TOTEN  =      -204.11904650 eV

  energy without entropy =     -204.14111566  energy(sigma->0) =     -204.12640288


--------------------------------------------------------------------------------------------------------




----------------------------------------- Iteration    1(  24)  ---------------------------------------


    POTLOK:  cpu time    0.15: real time    0.15
    SETDIJ:  cpu time    0.91: real time    0.91
    EDDIAG:  cpu time    0.86: real time    0.86
  RMM-DIIS:  cpu time    3.27: real time    3.28
    ORTHCH:  cpu time    0.09: real time    0.09
       DOS:  cpu time    0.00: real time    0.00
    --------------------------------------------
      LOOP:  cpu time    5.29: real time    5.30

 eigenvalue-minimisations  :  2617
 total energy-change (2. order) : 0.1281078E-05  (-0.1429967E-05)
 number of electron     276.0000038 magnetization     -19.9974741
 augmentation part      112.0364836 magnetization     -13.4808076

 Free energy of the ion-electron system (eV)
  ---------------------------------------------------
  alpha Z        PSCENC =      1374.09044373
  Ewald energy   TEWEN  =    -25550.73605827
  -1/2 Hartree   DENC   =     -9911.75780425
  -exchange  EXHF       =         0.00000000
  -V(xc)+E(xc)   XCENC  =      1367.77282986
  PAW double counting   =     37759.00843552   -38829.64926100
  entropy T*S    EENTRO =         0.02206346
  eigenvalues    EBANDS =     -3684.28944450
  atomic energy  EATOM  =     37271.41975024
  ---------------------------------------------------
  free energy    TOTEN  =      -204.11904521 eV

  energy without entropy =     -204.14110868  energy(sigma->0) =     -204.12639970


--------------------------------------------------------------------------------------------------------




 average (electrostatic) potential at core
  the test charge radii are     0.9500  0.7215
  (the norm of the test charge is              1.0000)
       1 -79.3800       2 -79.3720       3 -79.4565       4 -79.3524       5 -79.6742
       6 -79.5447       7 -79.5447       8 -79.6742       9 -79.3524      10 -79.4565
      11 -79.3720      12 -79.3800      13 -68.6774      14 -68.6241      15 -68.7470
      16 -68.6774      17 -68.6241      18 -68.7470      19 -68.6774      20 -68.6241
      21 -68.7470      22 -68.6774      23 -68.7470      24 -68.6241      25 -68.6774
      26 -68.7470      27 -68.6241      28 -68.6774      29 -68.7470      30 -68.6241
 
 
 
 E-fermi :   5.8293     XC(G=0): -11.9335     alpha+bet :-12.4919


 spin component 1

 k-point   1 :       0.0000    0.0000    0.0000
  band No.  band energies     occupation 
      1     -51.2124      1.00000
      2     -51.2087      1.00000
      3     -51.1742      1.00000
      4     -51.1742      1.00000
      5     -51.1731      1.00000
      6     -51.1731      1.00000
      7     -51.1498      1.00000
      8     -51.1498      1.00000
      9     -51.1257      1.00000
     10     -51.1257      1.00000
     11     -51.1257      1.00000
     12     -51.1257      1.00000
     13     -46.6468      1.00000
     14     -46.6466      1.00000
     15     -46.6322      1.00000
     16     -46.6322      1.00000
     17     -46.6321      1.00000
     18     -46.6321      1.00000
     19     -46.5452      1.00000
     20     -46.5426      1.00000
     21     -46.5426      1.00000
     22     -46.5399      1.00000
     23     -46.5126      1.00000
     24     -46.5126      1.00000
     25     -46.4844      1.00000
     26     -46.4844      1.00000
     27     -46.4711      1.00000
     28     -46.4711      1.00000
     29     -46.4711      1.00000
     30     -46.4711      1.00000
     31     -46.4198      1.00000
     32     -46.4194      1.00000
     33     -46.4030      1.00000
     34     -46.4030      1.00000
     35     -46.4030      1.00000
     36     -46.4030      1.00000
     37     -13.1860      1.00000
     38     -12.7973      1.00000
     39     -12.7965      1.00000
     40     -12.0330      1.00000
     41     -11.9843      1.00000
     42     -11.6051      1.00000
     43     -11.6051      1.00000
     44     -11.5547      1.00000
     45     -11.5547      1.00000
     46     -11.5135      1.00000
     47     -11.3896      1.00000
     48     -11.3896      1.00000
     49     -11.3895      1.00000
     50     -11.3895      1.00000
     51     -11.2603      1.00000
     52     -11.2603      1.00000
     53     -11.2452      1.00000
     54     -11.2452      1.00000
     55      -1.4986      1.00000
     56      -1.2008      1.00000
     57      -1.2008      1.00000
     58      -1.1520      1.00000
     59      -1.1520      1.00000
     60      -1.1234      1.00000
     61      -0.9934      1.00000
     62      -0.9934      1.00000
     63      -0.9609      1.00000
     64      -0.9609      1.00000
     65      -0.9382      1.00000
     66      -0.8131      1.00000
     67      -0.8131      1.00000
     68      -0.7162      1.00000
     69      -0.7162      1.00000
     70      -0.7095      1.00000
     71      -0.7095      1.00000
     72      -0.7037      1.00000
     73      -0.5013      1.00000
     74      -0.5013      1.00000
     75      -0.0696      1.00000
     76       0.4691      1.00000
     77       0.6064      1.00000
     78       0.6628      1.00000
     79       0.7585      1.00000
     80       0.8948      1.00000
     81       0.8948      1.00000
     82       0.9812      1.00000
     83       0.9812      1.00000
     84       1.1410      1.00000
     85       1.4346      1.00000
     86       1.4346      1.00000
     87       1.5667      1.00000
     88       1.6330      1.00000
     89       1.6330      1.00000
     90       1.7084      1.00000
     91       1.8972      1.00000
     92       1.9100      1.00000
     93       1.9100      1.00000
     94       2.1673      1.00000
     95       2.1673      1.00000
     96       2.4727      1.00000
     97       2.4727      1.00000
     98       2.6015      1.00000
     99       2.6749      1.00000
    100       2.6749      1.00000
    101       2.7564      1.00000
    102       2.8201      1.00000
    103       2.9440      1.00000
    104       3.0508      1.00000
    105       3.0751      1.00000
    106       3.0751      1.00000
    107       3.1706      1.00000
    108       3.1997      1.00000
    109       3.1997      1.00000
    110       3.2472      1.00000
    111       3.2472      1.00000
    112       3.5590      1.00000
    113       3.5590      1.00000
    114       3.5802      1.00000
    115       3.6111      1.00000
    116       4.1216      1.00000
    117       4.1216      1.00000
    118       4.2022      1.00000
    119       4.2022      1.00000
    120       4.6288      1.00000
    121       4.7341      1.00000
    122       4.7341      1.00000
    123       4.9901      1.00000
    124       4.9901      1.00000
    125       5.2245      1.00008
    126       5.2245      1.00008
    127       5.4049      1.00529
    128       5.4049      1.00529
    129       7.3357     -0.00000
    130       7.3357     -0.00000
    131       7.4533     -0.00000
    132       7.6504     -0.00000
    133       7.6504     -0.00000
    134       7.6894     -0.00000
    135       7.6895     -0.00000
    136       7.7238     -0.00000
    137       7.8801     -0.00000
    138       7.8803     -0.00000
    139       7.8908     -0.00000
    140       7.9964     -0.00000
    141       7.9964     -0.00000
    142       8.0454     -0.00000
    143       8.0689     -0.00000
    144       8.0876     -0.00000
    145       8.0880     -0.00000
    146       8.1056     -0.00000
    147       8.2087     -0.00000
    148       8.2232     -0.00000
    149       8.2236     -0.00000
    150       8.3152     -0.00000
    151       8.3504     -0.00000
    152       8.3505     -0.00000
    153       8.6291     -0.00000
    154       8.6313     -0.00000
    155       8.7299     -0.00000
    156       8.7428     -0.00000
    157       8.9309     -0.00000
    158       8.9342     -0.00000
    159       8.9508     -0.00000
    160       8.9668     -0.00000
    161       9.1041     -0.00000
    162       9.1326     -0.00000
    163       9.2047     -0.00000
    164       9.2493     -0.00000
    165       9.4298     -0.00000
    166       9.4591     -0.00000
    167       9.7627     -0.00000
    168      10.6062     -0.00000

 k-point   2 :       0.2000    0.0000    0.0000
  band No.  band energies     occupation 
      1     -51.2123      1.00000
      2     -51.2091      1.00000
      3     -51.1742      1.00000
      4     -51.1742      1.00000
      5     -51.1737      1.00000
      6     -51.1713      1.00000
      7     -51.1514      1.00000
      8     -51.1492      1.00000
      9     -51.1257      1.00000
     10     -51.1257      1.00000
     11     -51.1257      1.00000
     12     -51.1257      1.00000
     13     -46.6469      1.00000
     14     -46.6465      1.00000
     15     -46.6322      1.00000
     16     -46.6322      1.00000
     17     -46.6321      1.00000
     18     -46.6321      1.00000
     19     -46.5462      1.00000
     20     -46.5433      1.00000
     21     -46.5407      1.00000
     22     -46.5389      1.00000
     23     -46.5145      1.00000
     24     -46.5118      1.00000
     25     -46.4845      1.00000
     26     -46.4845      1.00000
     27     -46.4714      1.00000
     28     -46.4714      1.00000
     29     -46.4703      1.00000
     30     -46.4703      1.00000
     31     -46.4196      1.00000
     32     -46.4193      1.00000
     33     -46.4038      1.00000
     34     -46.4038      1.00000
     35     -46.4027      1.00000
     36     -46.4026      1.00000
     37     -13.0480      1.00000
     38     -12.6880      1.00000
     39     -12.6785      1.00000
     40     -12.0111      1.00000
     41     -11.9535      1.00000
     42     -11.6751      1.00000
     43     -11.6552      1.00000
     44     -11.6199      1.00000
     45     -11.5897      1.00000
     46     -11.5405      1.00000
     47     -11.4567      1.00000
     48     -11.4145      1.00000
     49     -11.4048      1.00000
     50     -11.3977      1.00000
     51     -11.3464      1.00000
     52     -11.3143      1.00000
     53     -11.2664      1.00000
     54     -11.2352      1.00000
     55      -1.4888      1.00000
     56      -1.3944      1.00000
     57      -1.3043      1.00000
     58      -1.1698      1.00000
     59      -1.1345      1.00000
     60      -1.1060      1.00000
     61      -1.0487      1.00000
     62      -1.0205      1.00000
     63      -0.9837      1.00000
     64      -0.9552      1.00000
     65      -0.9180      1.00000
     66      -0.8764      1.00000
     67      -0.8167      1.00000
     68      -0.8035      1.00000
     69      -0.7740      1.00000
     70      -0.7357      1.00000
     71      -0.6798      1.00000
     72      -0.6038      1.00000
     73      -0.4615      1.00000
     74      -0.3760      1.00000
     75      -0.0216      1.00000
     76       0.3245      1.00000
     77       0.5744      1.00000
     78       0.6564      1.00000
     79       0.6916      1.00000
     80       0.8361      1.00000
     81       0.8936      1.00000
     82       0.9914      1.00000
     83       1.2204      1.00000
     84       1.2805      1.00000
     85       1.3803      1.00000
     86       1.5388      1.00000
     87       1.5683      1.00000
     88       1.7419      1.00000
     89       1.7588      1.00000
     90       1.7758      1.00000
     91       1.9096      1.00000
     92       1.9346      1.00000
     93       2.0215      1.00000
     94       2.1140      1.00000
     95       2.3066      1.00000
     96       2.4469      1.00000
     97       2.4938      1.00000
     98       2.5753      1.00000
     99       2.6098      1.00000
    100       2.6928      1.00000
    101       2.7770      1.00000
    102       2.8451      1.00000
    103       2.9610      1.00000
    104       2.9813      1.00000
    105       3.0401      1.00000
    106       3.0613      1.00000
    107       3.1512      1.00000
    108       3.2609      1.00000
    109       3.2852      1.00000
    110       3.4232      1.00000
    111       3.4704      1.00000
    112       3.5777      1.00000
    113       3.7012      1.00000
    114       3.7728      1.00000
    115       3.8379      1.00000
    116       4.0262      1.00000
    117       4.1544      1.00000
    118       4.1782      1.00000
    119       4.2353      1.00000
    120       4.4206      1.00000
    121       4.4829      1.00000
    122       4.6715      1.00000
    123       4.8711      1.00000
    124       4.9253      1.00000
    125       5.0238      1.00000
    126       5.1770      1.00002
    127       5.2638      1.00024
    128       5.2930      1.00050
    129       7.3287     -0.00000
    130       7.3935     -0.00000
    131       7.4507     -0.00000
    132       7.5019     -0.00000
    133       7.6057     -0.00000
    134       7.6717     -0.00000
    135       7.7090     -0.00000
    136       7.7993     -0.00000
    137       7.8364     -0.00000
    138       7.8570     -0.00000
    139       7.9045     -0.00000
    140       7.9426     -0.00000
    141       7.9849     -0.00000
    142       8.0235     -0.00000
    143       8.0380     -0.00000
    144       8.0820     -0.00000
    145       8.1235     -0.00000
    146       8.1688     -0.00000
    147       8.2023     -0.00000
    148       8.2425     -0.00000
    149       8.2575     -0.00000
    150       8.2613     -0.00000
    151       8.3352     -0.00000
    152       8.3791     -0.00000
    153       8.5905     -0.00000
    154       8.6319     -0.00000
    155       8.7176     -0.00000
    156       8.7907     -0.00000
    157       8.8701     -0.00000
    158       8.9100     -0.00000
    159       8.9581     -0.00000
    160       9.0133     -0.00000
    161       9.0253     -0.00000
    162       9.1088     -0.00000
    163       9.1717     -0.00000
    164       9.1862     -0.00000
    165       9.4217     -0.00000
    166       9.5183     -0.00000
    167       9.9639     -0.00000
    168      12.4518      0.00000

 k-point   3 :       0.4000    0.0000    0.0000
  band No.  band energies     occupation 
      1     -51.2117      1.00000
      2     -51.2100      1.00000
      3     -51.1746      1.00000
      4     -51.1742      1.00000
      5     -51.1742      1.00000
      6     -51.1675      1.00000
      7     -51.1549      1.00000
      8     -51.1483      1.00000
      9     -51.1257      1.00000
     10     -51.1257      1.00000
     11     -51.1257      1.00000
     12     -51.1257      1.00000
     13     -46.6469      1.00000
     14     -46.6465      1.00000
     15     -46.6323      1.00000
     16     -46.6323      1.00000
     17     -46.6322      1.00000
     18     -46.6321      1.00000
     19     -46.5459      1.00000
     20     -46.5445      1.00000
     21     -46.5422      1.00000
     22     -46.5336      1.00000
     23     -46.5185      1.00000
     24     -46.5107      1.00000
     25     -46.4846      1.00000
     26     -46.4846      1.00000
     27     -46.4720      1.00000
     28     -46.4720      1.00000
     29     -46.4691      1.00000
     30     -46.4691      1.00000
     31     -46.4194      1.00000
     32     -46.4191      1.00000
     33     -46.4052      1.00000
     34     -46.4052      1.00000
     35     -46.4021      1.00000
     36     -46.4021      1.00000
     37     -12.6877      1.00000
     38     -12.4523      1.00000
     39     -12.3588      1.00000
     40     -12.2047      1.00000
     41     -11.9662      1.00000
     42     -11.8446      1.00000
     43     -11.7794      1.00000
     44     -11.6662      1.00000
     45     -11.6438      1.00000
     46     -11.6317      1.00000
     47     -11.5625      1.00000
     48     -11.4853      1.00000
     49     -11.4385      1.00000
     50     -11.4275      1.00000
     51     -11.3785      1.00000
     52     -11.3632      1.00000
     53     -11.3125      1.00000
     54     -11.2493      1.00000
     55      -1.6537      1.00000
     56      -1.4572      1.00000
     57      -1.2855      1.00000
     58      -1.2786      1.00000
     59      -1.2337      1.00000
     60      -1.1868      1.00000
     61      -1.1605      1.00000
     62      -1.0914      1.00000
     63      -1.0537      1.00000
     64      -0.9820      1.00000
     65      -0.9368      1.00000
     66      -0.8909      1.00000
     67      -0.8268      1.00000
     68      -0.7893      1.00000
     69      -0.6408      1.00000
     70      -0.6323      1.00000
     71      -0.6007      1.00000
     72      -0.5519      1.00000
     73      -0.4065      1.00000
     74      -0.2084      1.00000
     75       0.0657      1.00000
     76       0.2747      1.00000
     77       0.4347      1.00000
     78       0.5219      1.00000
     79       0.7400      1.00000
     80       0.8391      1.00000
     81       0.9078      1.00000
     82       0.9918      1.00000
     83       1.1766      1.00000
     84       1.4346      1.00000
     85       1.5031      1.00000
     86       1.5451      1.00000
     87       1.6812      1.00000
     88       1.6971      1.00000
     89       1.7536      1.00000
     90       1.8906      1.00000
     91       2.0444      1.00000
     92       2.0609      1.00000
     93       2.1702      1.00000
     94       2.2152      1.00000
     95       2.3997      1.00000
     96       2.4337      1.00000
     97       2.5261      1.00000
     98       2.5735      1.00000
     99       2.6655      1.00000
    100       2.7402      1.00000
    101       2.7816      1.00000
    102       2.8210      1.00000
    103       2.9045      1.00000
    104       2.9355      1.00000
    105       3.0495      1.00000
    106       3.1073      1.00000
    107       3.1996      1.00000
    108       3.2660      1.00000
    109       3.3779      1.00000
    110       3.5156      1.00000
    111       3.5855      1.00000
    112       3.6333      1.00000
    113       3.7713      1.00000
    114       3.7843      1.00000
    115       3.8479      1.00000
    116       4.0253      1.00000
    117       4.0869      1.00000
    118       4.2011      1.00000
    119       4.2744      1.00000
    120       4.3467      1.00000
    121       4.4832      1.00000
    122       4.6639      1.00000
    123       4.6848      1.00000
    124       4.8545      1.00000
    125       4.9720      1.00000
    126       5.0238      1.00000
    127       5.1915      1.00003
    128       5.2819      1.00038
    129       7.2806     -0.00000
    130       7.3544     -0.00000
[...]
  0.000  -0.006   0.000   0.000  -0.024   0.000  -0.000  -0.000   0.188  -0.000  -0.000   0.000   0.000  -0.206   0.000   0.000
 -0.000   0.002  -0.000   0.000  -0.001   0.000   0.000   0.000  -0.000   0.000   0.000  -0.000  -0.000   0.005  -0.000  -0.000
 total augmentation occupancy for first ion, spin component:           2
 -0.004  -0.000  -0.000  -0.013  -0.000   0.000  -0.001  -0.003   0.000   0.000  -0.004   0.001   0.003  -0.000  -0.000   0.005
 -0.000  -0.003  -0.000  -0.000  -0.013  -0.000  -0.000  -0.000   0.003  -0.000  -0.000   0.000   0.000  -0.004   0.000   0.000
 -0.000  -0.000  -0.004  -0.000  -0.000  -0.013  -0.004  -0.000  -0.000  -0.003   0.001   0.005   0.000   0.000   0.003  -0.001
 -0.013  -0.000  -0.000   0.013   0.000   0.000   0.038   0.102   0.000   0.003   0.144  -0.025  -0.077  -0.000  -0.005  -0.098
 -0.000  -0.013  -0.000   0.000   0.013   0.000   0.000   0.000  -0.115   0.000   0.000  -0.000  -0.000   0.071  -0.000  -0.000
  0.000  -0.000  -0.013   0.000   0.000   0.013   0.144  -0.003   0.000   0.102  -0.038  -0.098   0.005  -0.000  -0.077   0.025
 -0.001  -0.000  -0.004   0.038   0.000   0.144   7.367   0.486  -0.000   2.457  -0.000  -4.740  -0.423   0.000  -2.131   0.000
 -0.003  -0.000  -0.000   0.102   0.000  -0.003   0.486   8.809   0.000   0.000   2.457  -0.424  -5.996  -0.000   0.000  -2.132
  0.000   0.003  -0.000   0.000  -0.115   0.000  -0.000   0.000   5.776   0.000  -0.000   0.000  -0.000  -3.364  -0.000   0.000
  0.000  -0.000  -0.003   0.003   0.000   0.102   2.457   0.000   0.000   8.809  -0.486  -2.132  -0.000  -0.000  -5.996   0.424
 -0.004  -0.000   0.001   0.144   0.000  -0.038  -0.000   2.457  -0.000  -0.486   7.367  -0.000  -2.131   0.000   0.423  -4.740
  0.001   0.000   0.005  -0.025  -0.000  -0.098  -4.740  -0.424   0.000  -2.132  -0.000   3.091   0.349  -0.000   1.739  -0.000
  0.003   0.000   0.000  -0.077  -0.000   0.005  -0.423  -5.996  -0.000  -0.000  -2.131   0.349   4.132   0.000   0.000   1.739
 -0.000  -0.004   0.000  -0.000   0.071  -0.000   0.000  -0.000  -3.364  -0.000   0.000  -0.000   0.000   1.989   0.000  -0.000
 -0.000   0.000   0.003  -0.005  -0.000  -0.077  -2.131   0.000  -0.000  -5.996   0.423   1.739   0.000   0.000   4.132  -0.349
  0.005   0.000  -0.001  -0.098  -0.000   0.025   0.000  -2.132   0.000   0.424  -4.740  -0.000   1.739  -0.000  -0.349   3.091
 -0.000   0.000  -0.000   0.000  -0.000   0.000  -0.000  -0.000   0.021  -0.000  -0.000  -0.000  -0.000   0.002  -0.000  -0.000
  0.000  -0.000   0.000   0.000  -0.001   0.000  -0.000  -0.000   0.010  -0.000  -0.000   0.000   0.000  -0.007   0.000   0.000


------------------------ aborting loop because EDIFF is reached ----------------------------------------


 


 total charge     
 
# of ion     s       p       d       tot
----------------------------------------
  1        0.302   6.374   5.686  12.362
  2        0.302   6.375   5.685  12.362
  3        0.304   6.378   5.671  12.353
  4        0.303   6.375   5.686  12.364
  5        0.307   6.384   5.640  12.331
  6        0.306   6.380   5.656  12.342
  7        0.306   6.380   5.656  12.342
  8        0.307   6.384   5.640  12.331
  9        0.303   6.375   5.686  12.364
 10        0.304   6.378   5.671  12.353
 11        0.302   6.375   5.685  12.362
 12        0.302   6.374   5.686  12.362
 13        1.566   3.490   0.000   5.056
 14        1.565   3.502   0.000   5.067
 15        1.568   3.485   0.000   5.053
 16        1.563   3.492   0.000   5.056
 17        1.563   3.493   0.000   5.055
 18        1.565   3.486   0.000   5.051
 19        1.567   3.492   0.000   5.059
 20        1.566   3.500   0.000   5.066
 21        1.569   3.485   0.000   5.053
 22        1.566   3.490   0.000   5.056
 23        1.568   3.485   0.000   5.053
 24        1.565   3.502   0.000   5.067
 25        1.563   3.492   0.000   5.056
 26        1.565   3.486   0.000   5.051
 27        1.563   3.493   0.000   5.055
 28        1.567   3.492   0.000   5.059
 29        1.569   3.485   0.000   5.053
 30        1.566   3.500   0.000   5.066
------------------------------------------------
tot       31.833 139.381  68.047 239.261
 


 magnetization (x)
 
# of ion     s       p       d       tot
----------------------------------------
  1        0.015   0.022   4.086   4.122
  2       -0.015  -0.022  -4.095  -4.132
  3       -0.019  -0.030  -4.129  -4.177
  4        0.012   0.021   4.074   4.106
  5       -0.025  -0.045  -4.209  -4.279
  6       -0.023  -0.039  -4.172  -4.233
  7       -0.023  -0.039  -4.172  -4.233
  8       -0.025  -0.045  -4.209  -4.279
  9        0.012   0.021   4.074   4.106
 10       -0.019  -0.030  -4.129  -4.177
 11       -0.015  -0.022  -4.095  -4.132
 12        0.015   0.022   4.086   4.122
 13       -0.010  -0.133   0.000  -0.143
 14       -0.013  -0.202   0.000  -0.215
 15       -0.001  -0.005   0.000  -0.006
 16       -0.012  -0.140   0.000  -0.152
 17       -0.012  -0.204   0.000  -0.216
 18       -0.000  -0.010   0.000  -0.010
 19       -0.009  -0.134   0.000  -0.143
 20       -0.013  -0.202   0.000  -0.215
 21       -0.000  -0.012   0.000  -0.012
 22       -0.010  -0.133   0.000  -0.143
 23       -0.001  -0.005   0.000  -0.006
 24       -0.013  -0.202   0.000  -0.215
 25       -0.012  -0.140   0.000  -0.152
 26       -0.000  -0.010   0.000  -0.010
 27       -0.012  -0.204   0.000  -0.216
 28       -0.009  -0.134   0.000  -0.143
 29       -0.000  -0.012   0.000  -0.012
 30       -0.013  -0.202   0.000  -0.215
------------------------------------------------
tot       -0.250  -2.272 -16.889 -19.412
 
    CHARGE:  cpu time    0.38: real time    0.38
    FORLOC:  cpu time    0.02: real time    0.02
    FORNL :  cpu time    1.63: real time    1.63
    STRESS:  cpu time    4.78: real time    4.79
    FORCOR:  cpu time    0.15: real time    0.15
    FORHAR:  cpu time    0.03: real time    0.03
    MIXING:  cpu time    0.01: real time    0.01

  FORCE on cell =-STRESS in cart. coord.  units (eV):
  Direction    XX          YY          ZZ          XY          YZ          ZX
  --------------------------------------------------------------------------------------
  Alpha Z  1374.09044  1374.09044  1374.09044
  Ewald   -8287.95963 -8287.95963 -8974.90271     0.00000    -0.00000    -0.00000
  Hartree  3431.40345  3431.40345  3049.04145    -0.00000    -0.00000    -0.00000
  E(xc)   -1625.32837 -1625.32832 -1626.46889    -0.00004     0.00000     0.00000
  Local     -42.52398   -42.52276  1022.20449    -0.00105     0.00000    -0.00000
  n-local  -704.92519  -702.74973  -710.48285    -0.49971    -0.05224    -0.45323
  augment  1872.67674  1872.67611  1869.71107     0.00041     0.00007     0.00005
  Kinetic  4003.11036  3999.25774  4012.94264     0.42788     0.08013     0.47218
  Fock        0.00000     0.00000     0.00000     0.00000     0.00000     0.00000
  -------------------------------------------------------------------------------------
  Total      19.70557    19.70557    16.13564     0.00011     0.00000     0.00000
  in kB     105.40380   105.40380    86.30849     0.00057     0.00000     0.00000
  external pressure =       99.04 kB  Pullay stress =        0.00 kB


 VOLUME and BASIS-vectors are now :
 -----------------------------------------------------------------------------
  energy-cutoff  :      500.00
  volume of cell :      299.53
      direct lattice vectors                 reciprocal lattice vectors
     4.352278094 -2.512788929  0.000000000     0.229764730 -0.000000000  0.000000000
     0.000000000  5.025577859  0.000000000     0.114882365  0.198982093  0.000000000
    -0.000000000 -0.000000000 13.694325367    -0.000000000 -0.000000000  0.073022947

  length of vectors
     5.025577859  5.025577859 13.694325367     0.229764730  0.229764730  0.073022947


 FORCES acting on ions
    electron-ion (+dipol)            ewald-force                    non-local-force                 convergence-correction
 -----------------------------------------------------------------------------------------------
   -.176E-05 0.109E-05 0.158E+03   0.428E-10 -.744E-10 -.159E+03   -.300E-15 -.295E-15 0.103E+01   0.166E-06 0.116E-06 0.448E-03
   -.488E-06 -.378E-06 -.158E+03   0.486E-11 -.889E-11 0.159E+03   0.267E-15 0.264E-15 -.921E+00   0.127E-06 0.593E-07 -.270E-04
   0.905E-06 -.118E-05 0.157E+03   -.373E-10 0.647E-10 -.159E+03   -.373E-15 -.373E-15 0.125E+01   -.102E-06 -.250E-07 0.450E-03
   -.873E-07 0.161E-05 -.157E+03   0.375E-10 -.643E-10 0.159E+03   0.320E-15 0.317E-15 -.109E+01   -.160E-06 -.108E-06 -.990E-03
   0.935E-07 0.172E-06 0.157E+03   -.524E-11 0.839E-11 -.159E+03   -.365E-15 -.372E-15 0.123E+01   0.144E-06 0.102E-06 -.708E-03
   0.215E-06 -.195E-05 -.157E+03   -.436E-10 0.742E-10 0.159E+03   0.299E-15 0.296E-15 -.102E+01   0.189E-06 0.936E-07 -.277E-03
   -.215E-06 0.195E-05 0.157E+03   0.435E-10 -.742E-10 -.159E+03   -.299E-15 -.301E-15 0.102E+01   -.189E-06 -.936E-07 0.277E-03
   -.935E-07 -.172E-06 -.157E+03   0.505E-11 -.824E-11 0.159E+03   0.365E-15 0.365E-15 -.123E+01   -.144E-06 -.102E-06 0.708E-03
   0.873E-07 -.161E-05 0.157E+03   -.376E-10 0.645E-10 -.159E+03   -.320E-15 -.317E-15 0.109E+01   0.160E-06 0.108E-06 0.990E-03
   -.905E-06 0.118E-05 -.157E+03   0.372E-10 -.648E-10 0.159E+03   0.373E-15 0.373E-15 -.125E+01   0.102E-06 0.250E-07 -.450E-03
   0.488E-06 0.378E-06 0.158E+03   -.486E-11 0.879E-11 -.159E+03   -.267E-15 -.264E-15 0.921E+00   -.127E-06 -.593E-07 0.270E-04
   0.176E-05 -.109E-05 -.158E+03   -.430E-10 0.745E-10 0.159E+03   0.300E-15 0.294E-15 -.103E+01   -.166E-06 -.116E-06 -.448E-03
   -.510E+02 0.290E+02 -.802E-02   0.506E+02 -.292E+02 0.124E-10   0.747E+00 -.195E+00 0.540E-01   0.722E-03 -.287E-03 -.108E-04
   -.511E+02 0.297E+02 0.901E-02   0.506E+02 -.292E+02 -.980E-10   0.685E+00 -.521E+00 0.713E-01   0.666E-03 -.764E-03 0.104E-03
   -.510E+02 0.294E+02 -.344E-01   0.506E+02 -.292E+02 0.845E-10   0.712E+00 -.412E+00 0.477E-01   0.983E-03 -.332E-03 0.125E-04
   0.387E+00 -.587E+02 -.801E-02   -.276E-10 0.585E+02 -.124E-10   -.205E+00 0.744E+00 0.540E-01   -.112E-03 0.769E-03 -.108E-04
   -.229E+00 -.591E+02 0.901E-02   0.414E-10 0.585E+02 -.843E-10   0.109E+00 0.854E+00 0.713E-01   0.329E-03 0.959E-03 0.104E-03
   0.149E-01 -.589E+02 -.344E-01   -.110E-10 0.585E+02 0.978E-10   0.758E-03 0.823E+00 0.477E-01   -.204E-03 0.102E-02 0.125E-04
   0.506E+02 0.297E+02 -.801E-02   -.506E+02 -.292E+02 -.497E-13   -.542E+00 -.549E+00 0.540E-01   -.610E-03 -.482E-03 -.108E-04
   0.513E+02 0.293E+02 0.901E-02   -.506E+02 -.292E+02 -.107E-09   -.794E+00 -.332E+00 0.713E-01   -.995E-03 -.195E-03 0.104E-03
   0.510E+02 0.294E+02 -.344E-01   -.506E+02 -.292E+02 0.107E-09   -.713E+00 -.411E+00 0.477E-01   -.778E-03 -.685E-03 0.125E-04
   0.510E+02 -.290E+02 0.802E-02   -.506E+02 0.292E+02 -.123E-10   -.747E+00 0.195E+00 -.540E-01   -.722E-03 0.287E-03 0.108E-04
   0.510E+02 -.294E+02 0.344E-01   -.506E+02 0.292E+02 -.819E-10   -.712E+00 0.412E+00 -.477E-01   -.983E-03 0.332E-03 -.125E-04
   0.511E+02 -.297E+02 -.901E-02   -.506E+02 0.292E+02 0.973E-10   -.685E+00 0.521E+00 -.713E-01   -.666E-03 0.764E-03 -.104E-03
   -.387E+00 0.587E+02 0.801E-02   0.289E-10 -.585E+02 0.126E-10   0.205E+00 -.744E+00 -.540E-01   0.112E-03 -.769E-03 0.108E-04
   -.149E-01 0.589E+02 0.344E-01   0.105E-10 -.585E+02 -.971E-10   -.758E-03 -.823E+00 -.477E-01   0.204E-03 -.102E-02 -.125E-04
   0.229E+00 0.591E+02 -.901E-02   -.415E-10 -.585E+02 0.818E-10   -.109E+00 -.854E+00 -.713E-01   -.329E-03 -.959E-03 -.104E-03
   -.506E+02 -.297E+02 0.801E-02   0.506E+02 0.292E+02 0.185E-12   0.542E+00 0.549E+00 -.540E-01   0.610E-03 0.482E-03 0.108E-04
   -.510E+02 -.294E+02 0.344E-01   0.506E+02 0.292E+02 -.107E-09   0.713E+00 0.411E+00 -.477E-01   0.778E-03 0.685E-03 -.125E-04
   -.513E+02 -.293E+02 -.901E-02   0.506E+02 0.292E+02 0.107E-09   0.794E+00 0.332E+00 -.713E-01   0.995E-03 0.195E-03 -.104E-03
 -----------------------------------------------------------------------------------------------
   -.996E-11 0.198E-10 0.191E-10   -.178E-12 0.639E-13 -.667E-12   0.555E-15 0.167E-15 0.111E-15   -.221E-12 -.132E-14 0.271E-12
 
 
 POSITION                                       TOTAL-FORCE (eV/Angst)
 -----------------------------------------------------------------------------------
      2.90152      0.00000     13.39761         0.000000      0.000000     -0.053358
     -0.00000     -0.00000     11.70865        -0.000000     -0.000000      0.034813
      1.45076      2.51279     11.11523        -0.000000     -0.000000      0.051019
      2.90152      0.00000      9.42626        -0.000000     -0.000000      0.090126
     -0.00000     -0.00000      8.83284        -0.000000     -0.000000      0.059561
      1.45076      2.51279      7.14387        -0.000000     -0.000000      0.123159
      2.90152      0.00000      6.55045         0.000000      0.000000     -0.123159
     -0.00000     -0.00000      4.86149         0.000000      0.000000     -0.059561
      1.45076      2.51279      4.26806         0.000000      0.000000     -0.090126
      2.90152      0.00000      2.57910         0.000000      0.000000     -0.051019
     -0.00000     -0.00000      1.98568         0.000000      0.000000     -0.034813
      1.45076      2.51279      0.29671        -0.000000     -0.000000      0.053358
      1.30568     -0.75384      3.42358         0.337037     -0.404749      0.046014
      4.20720     -0.75384      7.98836         0.248116     -0.005275      0.080394
      2.75644      1.75895     12.55313         0.352239     -0.221177      0.013325
     -0.00000      1.50767      3.42358         0.182005      0.494257      0.046014
      2.90152      1.50767      7.98836        -0.119490      0.217512      0.080394
      1.45076      4.02046     12.55313         0.015426      0.415637      0.013325
      3.04659      1.75895      3.42358        -0.519041     -0.089508      0.046014
      1.59584     -0.75384      7.98836        -0.128626     -0.212237      0.080394
      0.14508      1.75895     12.55313        -0.367665     -0.194459      0.013325
      3.04659     -1.75895     10.27074        -0.337037      0.404749     -0.046014
      1.59584      0.75384      1.14119        -0.352239      0.221177     -0.013325
      0.14508      3.26663      5.70597        -0.248116      0.005275     -0.080394
     -0.00000      3.51790     10.27074        -0.182005     -0.494257     -0.046014
      2.90152     -1.50767      1.14119        -0.015426     -0.415637     -0.013325
      1.45076      1.00512      5.70597         0.119490     -0.217512     -0.080394
      1.30568      0.75384     10.27074         0.519041      0.089508     -0.046014
      4.20720      0.75384      1.14119         0.367665      0.194459     -0.013325
      2.75644      3.26663      5.70597         0.128626      0.212237     -0.080394
 -----------------------------------------------------------------------------------
    total drift:                               -0.000000      0.000000      0.000000


--------------------------------------------------------------------------------------------------------



  FREE ENERGIE OF THE ION-ELECTRON SYSTEM (eV)
  ---------------------------------------------------
  free  energy   TOTEN  =      -204.119045 eV

  energy  without entropy=     -204.141109  energy(sigma->0) =     -204.126400
 


--------------------------------------------------------------------------------------------------------


    POTLOK:  cpu time    1.06: real time    1.07


--------------------------------------------------------------------------------------------------------


 stress matrix after NEB project (eV)
     19.70557     -0.00011      0.00000
      0.00011     19.70557      0.00000
      0.00000      0.00000     16.13564
  FORCES: max atom, RMS     0.528709    0.326166
  FORCE total and by dimension    1.786485    0.519041
  Stress total and by dimension   32.202140   19.705569
 writing wavefunctions
     LOOP+:  cpu time  147.88: real time  148.34
    4ORBIT:  cpu time    0.00: real time    0.00
 


 total charge     
 
# of ion     s       p       d       tot
----------------------------------------
  1        0.302   6.374   5.686  12.362
  2        0.302   6.375   5.685  12.362
  3        0.304   6.378   5.671  12.353
  4        0.303   6.375   5.686  12.364
  5        0.307   6.384   5.640  12.331
  6        0.306   6.380   5.656  12.342
  7        0.306   6.380   5.656  12.342
  8        0.307   6.384   5.640  12.331
  9        0.303   6.375   5.686  12.364
 10        0.304   6.378   5.671  12.353
 11        0.302   6.375   5.685  12.362
 12        0.302   6.374   5.686  12.362
 13        1.566   3.490   0.000   5.056
 14        1.565   3.502   0.000   5.067
 15        1.568   3.485   0.000   5.053
 16        1.563   3.492   0.000   5.056
 17        1.563   3.493   0.000   5.055
 18        1.565   3.486   0.000   5.051
 19        1.567   3.492   0.000   5.059
 20        1.566   3.500   0.000   5.066
 21        1.569   3.485   0.000   5.053
 22        1.566   3.490   0.000   5.056
 23        1.568   3.485   0.000   5.053
 24        1.565   3.502   0.000   5.067
 25        1.563   3.492   0.000   5.056
 26        1.565   3.486   0.000   5.051
 27        1.563   3.493   0.000   5.055
 28        1.567   3.492   0.000   5.059
 29        1.569   3.485   0.000   5.053
 30        1.566   3.500   0.000   5.066
------------------------------------------------
tot       31.833 139.381  68.047 239.261
 


 magnetization (x)
 
# of ion     s       p       d       tot
----------------------------------------
  1        0.015   0.022   4.086   4.122
  2       -0.015  -0.022  -4.095  -4.132
  3       -0.019  -0.030  -4.129  -4.177
  4        0.012   0.021   4.074   4.106
  5       -0.025  -0.045  -4.209  -4.279
  6       -0.023  -0.039  -4.172  -4.233
  7       -0.023  -0.039  -4.172  -4.233
  8       -0.025  -0.045  -4.209  -4.279
  9        0.012   0.021   4.074   4.106
 10       -0.019  -0.030  -4.129  -4.177
 11       -0.015  -0.022  -4.095  -4.132
 12        0.015   0.022   4.086   4.122
 13       -0.010  -0.133   0.000  -0.143
 14       -0.013  -0.202   0.000  -0.215
 15       -0.001  -0.005   0.000  -0.006
 16       -0.012  -0.140   0.000  -0.152
 17       -0.012  -0.204   0.000  -0.216
 18       -0.000  -0.010   0.000  -0.010
 19       -0.009  -0.134   0.000  -0.143
 20       -0.013  -0.202   0.000  -0.215
 21       -0.000  -0.012   0.000  -0.012
 22       -0.010  -0.133   0.000  -0.143
 23       -0.001  -0.005   0.000  -0.006
 24       -0.013  -0.202   0.000  -0.215
 25       -0.012  -0.140   0.000  -0.152
 26       -0.000  -0.010   0.000  -0.010
 27       -0.012  -0.204   0.000  -0.216
 28       -0.009  -0.134   0.000  -0.143
 29       -0.000  -0.012   0.000  -0.012
 30       -0.013  -0.202   0.000  -0.215
------------------------------------------------
tot       -0.250  -2.272 -16.889 -19.412
 

 total amount of memory used by VASP on root node    85307. kBytes
========================================================================

   base      :      30000. kBytes
   nonlr-proj:      20579. kBytes
   fftplans  :       5388. kBytes
   grid      :      19456. kBytes
   one-center:        933. kBytes
   wavefun   :       8951. kBytes
 
  
  
 General timing and accounting informations for this job:
 ========================================================
  
                  Total CPU time used (sec):      155.217
                            User time (sec):      148.319
                          System time (sec):        6.898
                         Elapsed time (sec):      157.426
  
                   Maximum memory used (kb):      153484.
                   Average memory used (kb):           0.
  
                          Minor page faults:       969282
                          Major page faults:            0
                 Voluntary context switches:         2491
