fe2o3 cell                              
           1
     4.352278   -2.512789    0.000000
     0.000000    5.025578    0.000000
    -0.000000   -0.000000   13.694325
   Fe   O 
  12  18
fe2o3 cell                              
           1
     4.352278   -2.512789    0.000000
     0.000000    5.025578    0.000000
    -0.000000   -0.000000   13.694325
   Fe   O 
  12  18
Direct configuration=     1
   0.66666667  0.33333333  0.97833333
   0.00000000  0.00000000  0.85500000
   0.33333333  0.66666667  0.81166667
   0.66666667  0.33333333  0.68833333
   0.00000000  0.00000000  0.64500000
   0.33333333  0.66666667  0.52166667
   0.66666667  0.33333333  0.47833333
   0.00000000  0.00000000  0.35500000
   0.33333333  0.66666667  0.31166667
   0.66666667  0.33333333  0.18833333
   0.00000000  0.00000000  0.14500000
   0.33333333  0.66666667  0.02166667
   0.30000000  0.00000000  0.25000000
   0.96666667  0.33333333  0.58333333
   0.63333333  0.66666667  0.91666667
   0.00000000  0.30000000  0.25000000
   0.66666667  0.63333333  0.58333333
   0.33333333  0.96666667  0.91666667
   0.70000000  0.70000000  0.25000000
   0.36666667  0.03333333  0.58333333
   0.03333333  0.36666667  0.91666667
   0.70000000  0.00000000  0.75000000
   0.36666667  0.33333333  0.08333333
   0.03333333  0.66666667  0.41666667
   0.00000000  0.70000000  0.75000000
   0.66666667  0.03333333  0.08333333
   0.33333333  0.36666667  0.41666667
   0.30000000  0.30000000  0.75000000
   0.96666667  0.63333333  0.08333333
   0.63333333  0.96666667  0.41666667
