       N       E                     dE             d eps       ncg     rms          rms(c)
RMM:   1     0.884709040613E+03    0.88471E+03   -0.74009E+03    48   0.509E+02
RMM:   2     0.620442280628E+03   -0.26427E+03   -0.31333E+03    48   0.121E+02
RMM:   3     0.481494795347E+03   -0.13895E+03   -0.22883E+03    48   0.933E+01
RMM:   4     0.262580206842E+03   -0.21891E+03   -0.22535E+03    48   0.110E+02
RMM:   5     0.854388535641E+02   -0.17714E+03   -0.16982E+03    48   0.108E+02
RMM:   6    -0.385073157895E+02   -0.12395E+03   -0.11271E+03    48   0.943E+01
RMM:   7    -0.121770087328E+03   -0.83263E+02   -0.79625E+02    48   0.722E+01
RMM:   8    -0.158218187422E+03   -0.36448E+02   -0.32320E+02    48   0.481E+01
RMM:   9    -0.169685113462E+03   -0.11467E+02   -0.11227E+02   132   0.275E+01
RMM:  10    -0.170732013104E+03   -0.10469E+01   -0.11211E+01   151   0.876E+00
RMM:  11    -0.170746434399E+03   -0.14421E-01   -0.18479E-01   133   0.114E+00
RMM:  12    -0.170747957762E+03   -0.15234E-02   -0.14919E-02   146   0.361E-01    0.194E+01
RMM:  13    -0.158456732177E+03    0.12291E+02   -0.26583E+01   130   0.150E+01    0.938E+00
RMM:  14    -0.155902923760E+03    0.25538E+01   -0.73548E+00   130   0.747E+00    0.433E+00
RMM:  15    -0.155276337656E+03    0.62659E+00   -0.10659E+00   130   0.338E+00    0.105E+00
RMM:  16    -0.155180514419E+03    0.95823E-01   -0.17518E-01   132   0.112E+00    0.465E-01
RMM:  17    -0.155161543723E+03    0.18971E-01   -0.28808E-02   130   0.570E-01    0.225E-01
RMM:  18    -0.155150200796E+03    0.11343E-01   -0.24785E-02   131   0.362E-01    0.154E-01
RMM:  19    -0.155156960634E+03   -0.67598E-02   -0.15625E-02   122   0.308E-01    0.831E-02
RMM:  20    -0.155167546077E+03   -0.10585E-01   -0.52793E-03   123   0.198E-01    0.808E-02
RMM:  21    -0.155179759093E+03   -0.12213E-01   -0.37035E-03   119   0.140E-01    0.418E-02
RMM:  22    -0.155188465436E+03   -0.87063E-02   -0.19496E-03   111   0.114E-01    0.373E-02
RMM:  23    -0.155190634163E+03   -0.21687E-02   -0.72328E-04   122   0.705E-02    0.172E-02
RMM:  24    -0.155192658870E+03   -0.20247E-02   -0.22436E-04    96   0.398E-02    0.702E-03
RMM:  25    -0.155193393924E+03   -0.73505E-03   -0.97629E-05    97   0.239E-02    0.496E-03
RMM:  26    -0.155193979031E+03   -0.58511E-03   -0.60692E-05    87   0.179E-02    0.479E-03
RMM:  27    -0.155194065331E+03   -0.86300E-04   -0.16671E-05    81   0.110E-02
   1 F= -.15519407E+03 E0= -.15519407E+03  d E =-.469645E-13
